121
pre_opt.log	Energy: -1694065.4116406
N         -1.91043       -3.07608       -0.62880
C         -2.37894       -2.31191       -1.76008
C         -1.42295       -2.39057       -2.96013
H         -2.44562       -1.27024       -1.40492
H         -3.37585       -2.67953       -2.03829
C         -1.98668       -1.59027       -4.12676
H         -0.43599       -2.00095       -2.66671
H         -1.30541       -3.44386       -3.25478
H         -1.27442       -1.58088       -4.96254
H         -2.92033       -2.04818       -4.47979
H         -2.18527       -0.54854       -3.83582
C         -0.70205       -2.67954        0.05080
C          0.47723       -3.61980       -0.25881
H         -0.91427       -2.70711        1.13315
H         -0.47173       -1.64838       -0.24544
C          1.76656       -3.03525        0.30614
H          0.27717       -4.60929        0.18076
H          0.55736       -3.75411       -1.34802
H          2.61008       -3.70637        0.10014
H          1.97809       -2.05763       -0.15174
H          1.67537       -2.90081        1.39251
C         -2.61842       -4.25713       -0.20784
C         -2.49579       -5.39531       -1.23046
H         -3.68016       -3.97893       -0.11070
H         -2.23817       -4.55016        0.78084
C         -3.20487       -6.64370       -0.72218
H         -2.92903       -5.06187       -2.18331
H         -1.43262       -5.60223       -1.42395
H         -3.11024       -7.45560       -1.45318
H         -2.76054       -6.99410        0.22008
H         -4.27242       -6.44444       -0.55018
O         -3.60038       -1.53814        0.96954
H         -4.31566       -2.20117        1.03852
H         -4.01056       -0.73413        0.59897
O         -2.78592       -3.20114        2.99872
H         -2.91062       -2.37338        2.49851
H         -1.87989       -3.15237        3.34289
O         -5.24419       -3.71403        1.56175
H         -4.45688       -4.09201        1.98829
H         -5.68874       -3.27083        2.31154
O         -1.53325        0.33158        0.14491
H         -1.89846       -0.30776        0.77281
H         -2.33923        0.77582       -0.16546
O         -4.23339        0.84959       -0.30315
H         -4.63431        1.60561        0.14613
H         -4.62373        0.83815       -1.18753
O          9.27149       -1.37644        1.26122
H          9.45760       -0.48787        1.57340
H         10.11765       -1.82803        1.30315
O          7.26579       -3.65779       -3.97692
H          7.45187       -2.76919       -3.66470
H          8.11195       -4.10933       -3.93492
O          3.80474       -1.76548        7.53878
H          3.99076       -0.87699        7.85116
H          4.65085       -2.21710        7.58087
O          5.77747        6.85601       -4.16769
H          5.96354        7.74457       -3.85554
H          6.62359        6.40440       -4.12576
O         -0.53834       -8.11131       -1.20864
H         -0.35132       -7.22295       -0.89632
H          0.30824       -8.56307       -1.16650
O          0.06121        6.94096        7.16734
H          0.24730        7.82951        7.47947
H          0.90735        6.48940        7.20927
O         -1.01303        1.84296       -8.04972
H         -0.82680        2.73161       -7.73698
H         -0.16674        1.39166       -8.00686
O         -5.54883       -2.59631        4.07213
H         -5.36356       -1.70769        4.38438
H         -4.70314       -3.04791        4.11411
O         -4.39833        7.56217       -0.83909
H         -4.21225        8.45072       -0.52690
H         -3.55220        7.11056       -0.79718
O         -8.01081        3.05932       -1.06416
H         -7.82475        3.94791       -0.75198
H         -7.16468        2.60773       -1.02218
O         14.41674        0.01077        0.95150
H         14.97316        0.75629        1.19570
H         14.99134       -0.75021        0.83210
O         11.84535       -1.18307       -3.79211
H         11.80293       -0.87302       -2.88005
H         12.60107       -0.75234       -4.20119
O          8.47564        0.28391        8.80419
H          8.54928        0.65344        9.68909
H          9.22155       -0.31161        8.68357
O         10.47891        9.04038       -3.42867
H         10.67516        9.96121       -3.62556
H         11.31149        8.55982       -3.46104
O          4.15142       -5.24012       -0.46963
H          3.94685       -5.42618       -1.39149
H          5.02606       -5.60006       -0.29719
O          4.81221        3.91793        6.53343
H          5.58577        3.44760        6.85510
H          4.45931        3.40521        5.79829
O          3.03972       -0.50133       -4.74835
H          3.87164       -0.09123       -4.99494
H          3.07585       -1.40722       -5.07044
O          0.45122       -3.25956        3.38864
H          0.23446       -4.17609        3.19918
H          0.74628       -3.22671        4.30339
O          0.31194        9.70809       -1.72802
H         -0.10880       10.51954       -2.02452
H          0.57400        9.22218       -2.51577
O         -3.46376       -4.58101       -4.38338
H         -4.41559       -4.54374       -4.25277
H         -3.20214       -5.49875       -4.26114
O         -4.49721        2.87685        5.29800
H         -5.35369        3.31138        5.32371
H         -3.82673        3.56170        5.38716
O         -2.08430        6.60184       -5.36527
H         -2.06058        7.02993       -6.22502
H         -2.92595        6.14005       -5.29936
O         -7.30915       -4.58550       -0.50903
H         -7.87003       -4.01656        0.02746
H         -6.51872       -4.76581        0.01083
O         -7.84762        6.61511        3.25238
H         -8.76972        6.33762        3.22113
H         -7.72435        7.25591        2.54493
O        -11.43270        7.16078       -0.52379
H        -11.81673        6.28986       -0.38541
H        -11.51915        7.36255       -1.46011
