 Set GAUSS_PDEF to "12".
 Entering Gaussian System, Link 0=g16
 Initial command:
 /leonardo/prod/opt/applications/g16/c02/binary/g16/l1.exe "/leonardo_scratch/large/userexternal/morza000/g16_35403105/Gau-1344089.inp" -scrdir="/leonardo_scratch/large/userexternal/morza000/g16_35403105/"
 Default is to use a total of  12 processors:
                               12 via shared-memory
                                1 via Linda
 Entering Link 1 = /leonardo/prod/opt/applications/g16/c02/binary/g16/l1.exe PID=   1344090.
  
 Copyright (c) 1988-2021, Gaussian, Inc.  All Rights Reserved.
  
 This is part of the Gaussian(R) 16 program.  It is based on
 the Gaussian(R) 09 system (copyright 2009, Gaussian, Inc.),
 the Gaussian(R) 03 system (copyright 2003, Gaussian, Inc.),
 the Gaussian(R) 98 system (copyright 1998, Gaussian, Inc.),
 the Gaussian(R) 94 system (copyright 1995, Gaussian, Inc.),
 the Gaussian 92(TM) system (copyright 1992, Gaussian, Inc.),
 the Gaussian 90(TM) system (copyright 1990, Gaussian, Inc.),
 the Gaussian 88(TM) system (copyright 1988, Gaussian, Inc.),
 the Gaussian 86(TM) system (copyright 1986, Carnegie Mellon
 University), and the Gaussian 82(TM) system (copyright 1983,
 Carnegie Mellon University). Gaussian is a federally registered
 trademark of Gaussian, Inc.
  
 This software contains proprietary and confidential information,
 including trade secrets, belonging to Gaussian, Inc.
  
 This software is provided under written license and may be
 used, copied, transmitted, or stored only in accord with that
 written license.
  
 The following legend is applicable only to US Government
 contracts under FAR:
  
                    RESTRICTED RIGHTS LEGEND
  
 Use, reproduction and disclosure by the US Government is
 subject to restrictions as set forth in subparagraphs (a)
 and (c) of the Commercial Computer Software - Restricted
 Rights clause in FAR 52.227-19.
  
 Gaussian, Inc.
 340 Quinnipiac St., Bldg. 40, Wallingford CT 06492
  
  
 ---------------------------------------------------------------
 Warning -- This program may not be used in any manner that
 competes with the business of Gaussian, Inc. or will provide
 assistance to any competitor of Gaussian, Inc.  The licensee
 of this program is prohibited from giving any competitor of
 Gaussian, Inc. access to this program.  By using this program,
 the user acknowledges that Gaussian, Inc. is engaged in the
 business of creating and licensing software in the field of
 computational chemistry and represents and warrants to the
 licensee that it is not a competitor of Gaussian, Inc. and that
 it will not use this program in any manner prohibited above.
 ---------------------------------------------------------------
  

 Cite this work as:
 Gaussian 16, Revision C.02,
 M. J. Frisch, G. W. Trucks, H. B. Schlegel, G. E. Scuseria, 
 M. A. Robb, J. R. Cheeseman, G. Scalmani, V. Barone, 
 G. A. Petersson, H. Nakatsuji, X. Li, M. Caricato, A. V. Marenich, 
 J. Bloino, B. G. Janesko, R. Gomperts, B. Mennucci, H. P. Hratchian, 
 J. V. Ortiz, A. F. Izmaylov, J. L. Sonnenberg, D. Williams-Young, 
 F. Ding, F. Lipparini, F. Egidi, J. Goings, B. Peng, A. Petrone, 
 T. Henderson, D. Ranasinghe, V. G. Zakrzewski, J. Gao, N. Rega, 
 G. Zheng, W. Liang, M. Hada, M. Ehara, K. Toyota, R. Fukuda, 
 J. Hasegawa, M. Ishida, T. Nakajima, Y. Honda, O. Kitao, H. Nakai, 
 T. Vreven, K. Throssell, J. A. Montgomery, Jr., J. E. Peralta, 
 F. Ogliaro, M. J. Bearpark, J. J. Heyd, E. N. Brothers, K. N. Kudin, 
 V. N. Staroverov, T. A. Keith, R. Kobayashi, J. Normand, 
 K. Raghavachari, A. P. Rendell, J. C. Burant, S. S. Iyengar, 
 J. Tomasi, M. Cossi, J. M. Millam, M. Klene, C. Adamo, R. Cammi, 
 J. W. Ochterski, R. L. Martin, K. Morokuma, O. Farkas, 
 J. B. Foresman, and D. J. Fox, Gaussian, Inc., Wallingford CT, 2019.
 
 ******************************************
 Gaussian 16:  ES64L-G16RevC.02  7-Dec-2021
                 3-Mar-2026 
 ******************************************
 %nprocshared=12
 Will use up to   12 processors via shared memory.
 %mem=12GB
 ----------------------------------------------------------------------
 #p opt(addredundant) M062X/def2svp scrf=(cpcm,solvent=water) empirical
 dispersion=GD3
 ----------------------------------------------------------------------
 1/18=120,19=15,26=3,38=1/1,3;
 2/9=110,12=2,17=6,18=5,40=1/2;
 3/5=43,7=101,11=2,25=1,30=1,70=2101,71=1,72=1,74=-55,124=31/1,2,3;
 4//1;
 5/5=2,38=5,53=1/2;
 6/7=2,8=2,9=2,10=2,28=1/1;
 7//1,2,3,16;
 1/18=20,19=15,26=3/3(2);
 2/9=110/2;
 99//99;
 2/9=110/2;
 3/5=43,7=101,11=2,25=1,30=1,70=2105,71=1,72=1,74=-55,124=31/1,2,3;
 4/5=5,16=3,69=1/1;
 5/5=2,38=5,53=1/2;
 7//1,2,3,16;
 1/18=20,19=15,26=3/3(-5);
 2/9=110/2;
 6/7=2,8=2,9=2,10=2,19=2,28=1/1;
 99/9=1/99;
 Leave Link    1 at Tue Mar  3 11:37:23 2026, MaxMem=  1610612736 cpu:               0.2 elap:               8.0
 (Enter /leonardo/prod/opt/applications/g16/c02/binary/g16/l101.exe)
 -------------------
 Title Card Required
 -------------------
 Symbolic Z-matrix:
 Charge =  1 Multiplicity = 2
 N                    -0.16833  -0.93058   0.37843 
 C                    -0.1      -0.0386   -0.75268 
 C                     0.85873  -0.52071  -1.85091 
 H                     0.27186   0.92452  -0.35523 
 H                    -1.11772   0.10498  -1.1422 
 C                     1.09351   0.60757  -2.84841 
 H                     1.81507  -0.83473  -1.40641 
 H                     0.41928  -1.39956  -2.35024 
 H                     1.74605   0.28609  -3.67181 
 H                     0.14281   0.95589  -3.28004 
 H                     1.5702    1.45925  -2.34027 
 C                     1.02529  -1.20875   1.1439 
 C                     1.50138  -2.65984   0.98928 
 H                     0.7729   -1.00038   2.19542 
 H                     1.80074  -0.50163   0.81797 
 C                     2.81715  -2.85632   1.73402 
 H                     0.73488  -3.35339   1.36468 
 H                     1.66596  -2.88354  -0.07519 
 H                     3.09424  -3.91944   1.7282 
 H                     3.63105  -2.29909   1.24768 
 H                     2.74417  -2.52477   2.78146 
 C                    -1.43396  -1.51534   0.74277 
 C                    -1.80212  -2.70334  -0.1688 
 H                    -2.1926   -0.72585   0.61249 
 H                    -1.39849  -1.82972   1.79662 
 C                    -3.24934  -3.10378   0.09547 
 H                    -1.66513  -2.42378  -1.22552 
 H                    -1.12359  -3.54569   0.03767 
 H                    -3.52672  -3.98419  -0.49964 
 H                    -3.39541  -3.34737   1.15827 
 H                    -3.92758  -2.28028  -0.17111 
 O                     0.25764   3.16356   0.77105 
 H                    -0.61673   3.03372   0.35859 
 H                     0.84135   3.58349   0.10739 
 O                    -0.62678   1.08965   2.2788 
 H                    -0.10229   1.87132   2.01872 
 H                    -0.69084   1.1253    3.24132 
 O                    -2.31414   2.12823   0.39895 
 H                    -1.99137   1.68904   1.21032 
 H                    -3.16751   2.5615    0.62196 
 O                     2.60425   1.53458   0.20631 
 H                     1.87949   1.83374   0.77456 
 H                     2.72687   2.32137  -0.35392 
 O                     2.21923   4.04251  -0.99107 
 H                     2.77013   4.85144  -0.839 
 H                     1.94758   4.10347  -1.9158 
 O                    -3.50061   0.37163  -1.41076 
 H                    -4.10399   0.97501  -1.87719 
 H                    -3.04848   0.96773  -0.78361 
 O                     6.01504  -1.92951  -0.32826 
 H                     6.28735  -1.02353  -0.50438 
 H                     6.79164  -2.40731  -0.0226 
 O                     3.61456  -2.98806  -1.53144 
 H                     4.39453  -2.61162  -1.09802 
 H                     3.92791  -3.73228  -2.05227 
 O                     2.85079  -0.29855   5.66204 
 H                     3.30935   0.4895    5.35365 
 H                     3.38899  -0.68563   6.35786 
 O                     3.25846   0.07908  -5.588 
 H                     2.90826   0.0447   -6.48278 
 H                     3.98485  -0.54989  -5.54225 
 O                     0.13789  -5.79526   0.63573 
 H                     0.01838  -6.45547   1.32428 
 H                     0.40878  -6.26574  -0.15756 
 O                     3.67776   6.30748  -0.70356 
 H                     3.40122   6.89426   0.00708 
 H                     4.63112   6.19875  -0.6308 
 O                    -0.80008  -3.10749  -3.72219 
 H                    -1.44098  -2.88007  -4.40218 
 H                    -0.28626  -3.84689  -4.05945 
 O                    -1.96649  -2.90193   3.96161 
 H                    -2.70441  -2.52162   4.44729 
 H                    -1.52182  -3.50732   4.56226 
 O                    -4.86599   6.00077   0.38933 
 H                    -5.12962   6.43983  -0.42494 
 H                    -4.0735    6.44379   0.71039 
 O                    -8.36452  -1.97877  -2.07389 
 H                    -7.53562  -1.56497  -2.33457 
 H                    -8.16874  -2.8993   -1.87432 
 O                    -4.83278   3.1901    0.56821 
 H                    -4.91806   4.16654   0.57813 
 H                    -5.53012   2.82491   1.15139 
 O                     8.17715  -3.4434    0.66474 
 H                     8.06961  -3.69399   1.58825 
 H                     8.36003  -4.24906   0.17084 
 O                     4.66671  -5.06928  -3.31905 
 H                     5.32773  -4.76832  -3.94992 
 H                     4.03891  -5.61299  -3.80409 
 O                     4.53701   1.85186   4.86079 
 H                     4.2868    2.76597   4.69438 
 H                     5.1427    1.59143   4.15918 
 O                     6.72505   3.44631  -3.79441 
 H                     6.01093   3.67303  -4.39917 
 H                     6.4013    2.72434  -3.24462 
 O                    -0.18587  -7.78686   2.68685 
 H                     0.34413  -7.67955   3.48289 
 H                    -1.0508   -8.10969   2.9599 
 O                     2.83403   7.98084   1.39525 
 H                     2.75865   8.93473   1.29898 
 H                     2.07845   7.68514   1.91311 
 O                    -2.79143  -2.52514  -5.69067 
 H                    -2.79421  -1.64312  -6.07556 
 H                    -3.66388  -2.67072  -5.31174 
 O                    -1.59794  -0.12754   8.31211 
 H                    -1.21645   0.64338   7.87904 
 H                    -0.89962  -0.78747   8.37189 
 O                    -0.96618   8.99378  -1.64175 
 H                    -0.67024   9.62963  -2.29976 
 H                    -0.62559   8.13312  -1.90851 
 O                    -7.49974  -4.67841  -1.51755 
 H                    -7.55941  -5.11265  -0.66091 
 H                    -7.31068  -5.36041  -2.16983 
 O                    -6.83859   1.9845    2.21651 
 H                    -6.50805   1.52433   2.99452 
 H                    -7.41311   1.36918   1.74938 
 O                    -5.14056   2.6708   -2.16419 
 H                    -6.08261   2.74278  -2.33711 
 H                    -5.03043   2.79048  -1.20249 
 
 Add virtual bond connecting atoms O65        and H45        Dist= 3.25D+00.
 Add virtual bond connecting atoms O80        and H40        Dist= 3.37D+00.
 Add virtual bond connecting atoms H49        and O38        Dist= 3.42D+00.
 Add virtual bond connecting atoms O44        and H34        Dist= 3.44D+00.
 Add virtual bond connecting atoms H118       and O80        Dist= 3.45D+00.
 Add virtual bond connecting atoms H36        and O32        Dist= 3.46D+00.
 Add virtual bond connecting atoms O38        and H33        Dist= 3.64D+00.
 Add virtual bond connecting atoms H39        and O35        Dist= 3.47D+00.
 Add virtual bond connecting atoms H81        and O74        Dist= 3.49D+00.
 Add virtual bond connecting atoms O98        and H66        Dist= 3.50D+00.
 Add virtual bond connecting atoms O83        and H52        Dist= 3.52D+00.
 Add virtual bond connecting atoms O113       and H82        Dist= 3.56D+00.
 Add virtual bond connecting atoms O89        and H57        Dist= 3.59D+00.
 Add virtual bond connecting atoms O101       and H69        Dist= 3.59D+00.
 Add virtual bond connecting atoms O44        and H43        Dist= 3.60D+00.
 Add virtual bond connecting atoms O95        and H63        Dist= 3.62D+00.
 Add virtual bond connecting atoms H54        and O50        Dist= 3.63D+00.
 Add virtual bond connecting atoms O110       and H79        Dist= 3.65D+00.
 Add virtual bond connecting atoms O86        and H55        Dist= 3.75D+00.
 Add virtual bond connecting atoms O41        and H15        Dist= 4.30D+00.
 Add virtual bond connecting atoms H42        and H4         Dist= 4.09D+00.
 Add virtual bond connecting atoms H49        and H5         Dist= 4.05D+00.
 Add virtual bond connecting atoms O53        and H18        Dist= 4.60D+00.
 Add virtual bond connecting atoms H54        and H20        Dist= 4.70D+00.
 Add virtual bond connecting atoms O59        and H9         Dist= 4.63D+00.
 Add virtual bond connecting atoms O71        and H25        Dist= 4.69D+00.
 Add virtual bond connecting atoms O68        and H8         Dist= 4.74D+00.
 Add virtual bond connecting atoms O62        and H17        Dist= 4.95D+00.
 Add virtual bond connecting atoms O62        and H28        Dist= 5.00D+00.
 Add virtual bond connecting atoms O56        and H21        Dist= 6.88D+00.
 Add virtual bond connecting atoms H78        and H31        Dist= 8.06D+00.
 Add virtual bond connecting atoms H78        and H48        Dist= 8.11D+00.
 Add virtual bond connecting atoms O110       and H29        Dist= 7.86D+00.
 Add virtual bond connecting atoms H111       and H29        Dist= 7.92D+00.
 Add virtual bond connecting atoms O107       and H76        Dist= 8.80D+00.
 Add virtual bond connecting atoms O107       and H99        Dist= 8.97D+00.
 Add virtual bond connecting atoms H109       and H46        Dist= 9.04D+00.
 Add virtual bond connecting atoms H109       and H66        Dist= 8.75D+00.
 Add virtual bond connecting atoms H109       and H76        Dist= 8.78D+00.
 Add virtual bond connecting atoms O92        and H67        Dist= 8.86D+00.
 Add virtual bond connecting atoms H93        and H46        Dist= 9.04D+00.
 Add virtual bond connecting atoms H93        and O59        Dist= 8.84D+00.
 Add virtual bond connecting atoms H93        and H67        Dist= 8.96D+00.
 Add virtual bond connecting atoms H94        and H43        Dist= 8.87D+00.
 Add virtual bond connecting atoms O104       and H72        Dist= 8.84D+00.
 Add virtual bond connecting atoms H105       and H37        Dist= 8.87D+00.
 Add virtual bond connecting atoms H105       and O56        Dist= 8.93D+00.
 Add virtual bond connecting atoms H106       and O56        Dist= 8.79D+00.
 Add virtual bond connecting atoms H106       and H58        Dist= 8.96D+00.
 The following ModRedundant input section has been read:
 B       4      32 F                                                           
 X      50 F                                                                   
 X      51 F                                                                   
 X      52 F                                                                   
 X      53 F                                                                   
 X      54 F                                                                   
 X      55 F                                                                   
 X      56 F                                                                   
 X      57 F                                                                   
 X      58 F                                                                   
 X      59 F                                                                   
 X      60 F                                                                   
 X      61 F                                                                   
 X      62 F                                                                   
 X      63 F                                                                   
 X      64 F                                                                   
 X      65 F                                                                   
 X      66 F                                                                   
 X      67 F                                                                   
 X      68 F                                                                   
 X      69 F                                                                   
 X      70 F                                                                   
 X      71 F                                                                   
 X      72 F                                                                   
 X      73 F                                                                   
 X      74 F                                                                   
 X      75 F                                                                   
 X      76 F                                                                   
 X      77 F                                                                   
 X      78 F                                                                   
 X      79 F                                                                   
 X      80 F                                                                   
 X      81 F                                                                   
 X      82 F                                                                   
 X      83 F                                                                   
 X      84 F                                                                   
 X      85 F                                                                   
 X      86 F                                                                   
 X      87 F                                                                   
 X      88 F                                                                   
 X      89 F                                                                   
 X      90 F                                                                   
 X      91 F                                                                   
 X      92 F                                                                   
 X      93 F                                                                   
 X      94 F                                                                   
 X      95 F                                                                   
 X      96 F                                                                   
 X      97 F                                                                   
 X      98 F                                                                   
 X      99 F                                                                   
 X     100 F                                                                   
 X     101 F                                                                   
 X     102 F                                                                   
 X     103 F                                                                   
 X     104 F                                                                   
 X     105 F                                                                   
 X     106 F                                                                   
 X     107 F                                                                   
 X     108 F                                                                   
 X     109 F                                                                   
 X     110 F                                                                   
 X     111 F                                                                   
 X     112 F                                                                   
 X     113 F                                                                   
 X     114 F                                                                   
 X     115 F                                                                   
 X     116 F                                                                   
 X     117 F                                                                   
 X     118 F                                                                   
 
 ITRead=  0  0  0  0  0  0  0  0  0  0  0  0  0  0  0  0  0  0  0  0
 ITRead=  0  0  0  0  0  0  0  0  0  0  0  0  0  0  0  0  0  0  0  0
 ITRead=  0  0  0  0  0  0  0  0  0  0  0  0  0  0  0  0  0  0  0  0
 ITRead=  0  0  0  0  0  0  0  0  0  0  0  0  0  0  0  0  0  0  0  0
 ITRead=  0  0  0  0  0  0  0  0  0  0  0  0  0  0  0  0  0  0  0  0
 ITRead=  0  0  0  0  0  0  0  0  0  0  0  0  0  0  0  0  0  0
 MicOpt= -1 -1 -1 -1 -1 -1 -1 -1 -1 -1 -1 -1 -1 -1 -1 -1 -1 -1 -1 -1
 MicOpt= -1 -1 -1 -1 -1 -1 -1 -1 -1 -1 -1 -1 -1 -1 -1 -1 -1 -1 -1 -1
 MicOpt= -1 -1 -1 -1 -1 -1 -1 -1 -1 -1 -1 -1 -1 -1 -1 -1 -1 -1 -1 -1
 MicOpt= -1 -1 -1 -1 -1 -1 -1 -1 -1 -1 -1 -1 -1 -1 -1 -1 -1 -1 -1 -1
 MicOpt= -1 -1 -1 -1 -1 -1 -1 -1 -1 -1 -1 -1 -1 -1 -1 -1 -1 -1 -1 -1
 MicOpt= -1 -1 -1 -1 -1 -1 -1 -1 -1 -1 -1 -1 -1 -1 -1 -1 -1 -1
 NAtoms=    118 NQM=      118 NQMF=       0 NMMI=      0 NMMIF=      0
                NMic=       0 NMicF=      0.
                    Isotopes and Nuclear Properties:
 (Nuclear quadrupole moments (NQMom) in fm**2, nuclear magnetic moments (NMagM)
  in nuclear magnetons)

  Atom         1           2           3           4           5           6           7           8           9          10
 IAtWgt=          14          12          12           1           1          12           1           1           1           1
 AtmWgt=  14.0030740  12.0000000  12.0000000   1.0078250   1.0078250  12.0000000   1.0078250   1.0078250   1.0078250   1.0078250
 NucSpn=           2           0           0           1           1           0           1           1           1           1
 AtZEff=  -0.0000000  -0.0000000  -0.0000000  -0.0000000  -0.0000000  -0.0000000  -0.0000000  -0.0000000  -0.0000000  -0.0000000
 NQMom=    2.0440000   0.0000000   0.0000000   0.0000000   0.0000000   0.0000000   0.0000000   0.0000000   0.0000000   0.0000000
 NMagM=    0.4037610   0.0000000   0.0000000   2.7928460   2.7928460   0.0000000   2.7928460   2.7928460   2.7928460   2.7928460
 AtZNuc=   7.0000000   6.0000000   6.0000000   1.0000000   1.0000000   6.0000000   1.0000000   1.0000000   1.0000000   1.0000000

  Atom        11          12          13          14          15          16          17          18          19          20
 IAtWgt=           1          12          12           1           1          12           1           1           1           1
 AtmWgt=   1.0078250  12.0000000  12.0000000   1.0078250   1.0078250  12.0000000   1.0078250   1.0078250   1.0078250   1.0078250
 NucSpn=           1           0           0           1           1           0           1           1           1           1
 AtZEff=  -0.0000000  -0.0000000  -0.0000000  -0.0000000  -0.0000000  -0.0000000  -0.0000000  -0.0000000  -0.0000000  -0.0000000
 NQMom=    0.0000000   0.0000000   0.0000000   0.0000000   0.0000000   0.0000000   0.0000000   0.0000000   0.0000000   0.0000000
 NMagM=    2.7928460   0.0000000   0.0000000   2.7928460   2.7928460   0.0000000   2.7928460   2.7928460   2.7928460   2.7928460
 AtZNuc=   1.0000000   6.0000000   6.0000000   1.0000000   1.0000000   6.0000000   1.0000000   1.0000000   1.0000000   1.0000000

  Atom        21          22          23          24          25          26          27          28          29          30
 IAtWgt=           1          12          12           1           1          12           1           1           1           1
 AtmWgt=   1.0078250  12.0000000  12.0000000   1.0078250   1.0078250  12.0000000   1.0078250   1.0078250   1.0078250   1.0078250
 NucSpn=           1           0           0           1           1           0           1           1           1           1
 AtZEff=  -0.0000000  -0.0000000  -0.0000000  -0.0000000  -0.0000000  -0.0000000  -0.0000000  -0.0000000  -0.0000000  -0.0000000
 NQMom=    0.0000000   0.0000000   0.0000000   0.0000000   0.0000000   0.0000000   0.0000000   0.0000000   0.0000000   0.0000000
 NMagM=    2.7928460   0.0000000   0.0000000   2.7928460   2.7928460   0.0000000   2.7928460   2.7928460   2.7928460   2.7928460
 AtZNuc=   1.0000000   6.0000000   6.0000000   1.0000000   1.0000000   6.0000000   1.0000000   1.0000000   1.0000000   1.0000000

  Atom        31          32          33          34          35          36          37          38          39          40
 IAtWgt=           1          16           1           1          16           1           1          16           1           1
 AtmWgt=   1.0078250  15.9949146   1.0078250   1.0078250  15.9949146   1.0078250   1.0078250  15.9949146   1.0078250   1.0078250
 NucSpn=           1           0           1           1           0           1           1           0           1           1
 AtZEff=  -0.0000000  -0.0000000  -0.0000000  -0.0000000  -0.0000000  -0.0000000  -0.0000000  -0.0000000  -0.0000000  -0.0000000
 NQMom=    0.0000000   0.0000000   0.0000000   0.0000000   0.0000000   0.0000000   0.0000000   0.0000000   0.0000000   0.0000000
 NMagM=    2.7928460   0.0000000   2.7928460   2.7928460   0.0000000   2.7928460   2.7928460   0.0000000   2.7928460   2.7928460
 AtZNuc=   1.0000000   8.0000000   1.0000000   1.0000000   8.0000000   1.0000000   1.0000000   8.0000000   1.0000000   1.0000000

  Atom        41          42          43          44          45          46          47          48          49          50
 IAtWgt=          16           1           1          16           1           1          16           1           1          16
 AtmWgt=  15.9949146   1.0078250   1.0078250  15.9949146   1.0078250   1.0078250  15.9949146   1.0078250   1.0078250  15.9949146
 NucSpn=           0           1           1           0           1           1           0           1           1           0
 AtZEff=  -0.0000000  -0.0000000  -0.0000000  -0.0000000  -0.0000000  -0.0000000  -0.0000000  -0.0000000  -0.0000000  -0.0000000
 NQMom=    0.0000000   0.0000000   0.0000000   0.0000000   0.0000000   0.0000000   0.0000000   0.0000000   0.0000000   0.0000000
 NMagM=    0.0000000   2.7928460   2.7928460   0.0000000   2.7928460   2.7928460   0.0000000   2.7928460   2.7928460   0.0000000
 AtZNuc=   8.0000000   1.0000000   1.0000000   8.0000000   1.0000000   1.0000000   8.0000000   1.0000000   1.0000000   8.0000000

  Atom        51          52          53          54          55          56          57          58          59          60
 IAtWgt=           1           1          16           1           1          16           1           1          16           1
 AtmWgt=   1.0078250   1.0078250  15.9949146   1.0078250   1.0078250  15.9949146   1.0078250   1.0078250  15.9949146   1.0078250
 NucSpn=           1           1           0           1           1           0           1           1           0           1
 AtZEff=  -0.0000000  -0.0000000  -0.0000000  -0.0000000  -0.0000000  -0.0000000  -0.0000000  -0.0000000  -0.0000000  -0.0000000
 NQMom=    0.0000000   0.0000000   0.0000000   0.0000000   0.0000000   0.0000000   0.0000000   0.0000000   0.0000000   0.0000000
 NMagM=    2.7928460   2.7928460   0.0000000   2.7928460   2.7928460   0.0000000   2.7928460   2.7928460   0.0000000   2.7928460
 AtZNuc=   1.0000000   1.0000000   8.0000000   1.0000000   1.0000000   8.0000000   1.0000000   1.0000000   8.0000000   1.0000000

  Atom        61          62          63          64          65          66          67          68          69          70
 IAtWgt=           1          16           1           1          16           1           1          16           1           1
 AtmWgt=   1.0078250  15.9949146   1.0078250   1.0078250  15.9949146   1.0078250   1.0078250  15.9949146   1.0078250   1.0078250
 NucSpn=           1           0           1           1           0           1           1           0           1           1
 AtZEff=  -0.0000000  -0.0000000  -0.0000000  -0.0000000  -0.0000000  -0.0000000  -0.0000000  -0.0000000  -0.0000000  -0.0000000
 NQMom=    0.0000000   0.0000000   0.0000000   0.0000000   0.0000000   0.0000000   0.0000000   0.0000000   0.0000000   0.0000000
 NMagM=    2.7928460   0.0000000   2.7928460   2.7928460   0.0000000   2.7928460   2.7928460   0.0000000   2.7928460   2.7928460
 AtZNuc=   1.0000000   8.0000000   1.0000000   1.0000000   8.0000000   1.0000000   1.0000000   8.0000000   1.0000000   1.0000000

  Atom        71          72          73          74          75          76          77          78          79          80
 IAtWgt=          16           1           1          16           1           1          16           1           1          16
 AtmWgt=  15.9949146   1.0078250   1.0078250  15.9949146   1.0078250   1.0078250  15.9949146   1.0078250   1.0078250  15.9949146
 NucSpn=           0           1           1           0           1           1           0           1           1           0
 AtZEff=  -0.0000000  -0.0000000  -0.0000000  -0.0000000  -0.0000000  -0.0000000  -0.0000000  -0.0000000  -0.0000000  -0.0000000
 NQMom=    0.0000000   0.0000000   0.0000000   0.0000000   0.0000000   0.0000000   0.0000000   0.0000000   0.0000000   0.0000000
 NMagM=    0.0000000   2.7928460   2.7928460   0.0000000   2.7928460   2.7928460   0.0000000   2.7928460   2.7928460   0.0000000
 AtZNuc=   8.0000000   1.0000000   1.0000000   8.0000000   1.0000000   1.0000000   8.0000000   1.0000000   1.0000000   8.0000000

  Atom        81          82          83          84          85          86          87          88          89          90
 IAtWgt=           1           1          16           1           1          16           1           1          16           1
 AtmWgt=   1.0078250   1.0078250  15.9949146   1.0078250   1.0078250  15.9949146   1.0078250   1.0078250  15.9949146   1.0078250
 NucSpn=           1           1           0           1           1           0           1           1           0           1
 AtZEff=  -0.0000000  -0.0000000  -0.0000000  -0.0000000  -0.0000000  -0.0000000  -0.0000000  -0.0000000  -0.0000000  -0.0000000
 NQMom=    0.0000000   0.0000000   0.0000000   0.0000000   0.0000000   0.0000000   0.0000000   0.0000000   0.0000000   0.0000000
 NMagM=    2.7928460   2.7928460   0.0000000   2.7928460   2.7928460   0.0000000   2.7928460   2.7928460   0.0000000   2.7928460
 AtZNuc=   1.0000000   1.0000000   8.0000000   1.0000000   1.0000000   8.0000000   1.0000000   1.0000000   8.0000000   1.0000000

  Atom        91          92          93          94          95          96          97          98          99         100
 IAtWgt=           1          16           1           1          16           1           1          16           1           1
 AtmWgt=   1.0078250  15.9949146   1.0078250   1.0078250  15.9949146   1.0078250   1.0078250  15.9949146   1.0078250   1.0078250
 NucSpn=           1           0           1           1           0           1           1           0           1           1
 AtZEff=  -0.0000000  -0.0000000  -0.0000000  -0.0000000  -0.0000000  -0.0000000  -0.0000000  -0.0000000  -0.0000000  -0.0000000
 NQMom=    0.0000000   0.0000000   0.0000000   0.0000000   0.0000000   0.0000000   0.0000000   0.0000000   0.0000000   0.0000000
 NMagM=    2.7928460   0.0000000   2.7928460   2.7928460   0.0000000   2.7928460   2.7928460   0.0000000   2.7928460   2.7928460
 AtZNuc=   1.0000000   8.0000000   1.0000000   1.0000000   8.0000000   1.0000000   1.0000000   8.0000000   1.0000000   1.0000000

  Atom       101         102         103         104         105         106         107         108         109         110
 IAtWgt=          16           1           1          16           1           1          16           1           1          16
 AtmWgt=  15.9949146   1.0078250   1.0078250  15.9949146   1.0078250   1.0078250  15.9949146   1.0078250   1.0078250  15.9949146
 NucSpn=           0           1           1           0           1           1           0           1           1           0
 AtZEff=  -0.0000000  -0.0000000  -0.0000000  -0.0000000  -0.0000000  -0.0000000  -0.0000000  -0.0000000  -0.0000000  -0.0000000
 NQMom=    0.0000000   0.0000000   0.0000000   0.0000000   0.0000000   0.0000000   0.0000000   0.0000000   0.0000000   0.0000000
 NMagM=    0.0000000   2.7928460   2.7928460   0.0000000   2.7928460   2.7928460   0.0000000   2.7928460   2.7928460   0.0000000
 AtZNuc=   8.0000000   1.0000000   1.0000000   8.0000000   1.0000000   1.0000000   8.0000000   1.0000000   1.0000000   8.0000000

  Atom       111         112         113         114         115         116         117         118
 IAtWgt=           1           1          16           1           1          16           1           1
 AtmWgt=   1.0078250   1.0078250  15.9949146   1.0078250   1.0078250  15.9949146   1.0078250   1.0078250
 NucSpn=           1           1           0           1           1           0           1           1
 AtZEff=  -0.0000000  -0.0000000  -0.0000000  -0.0000000  -0.0000000  -0.0000000  -0.0000000  -0.0000000
 NQMom=    0.0000000   0.0000000   0.0000000   0.0000000   0.0000000   0.0000000   0.0000000   0.0000000
 NMagM=    2.7928460   2.7928460   0.0000000   2.7928460   2.7928460   0.0000000   2.7928460   2.7928460
 AtZNuc=   1.0000000   1.0000000   8.0000000   1.0000000   1.0000000   8.0000000   1.0000000   1.0000000
 Leave Link  101 at Tue Mar  3 11:37:30 2026, MaxMem=  1610612736 cpu:               0.6 elap:               2.0
 (Enter /leonardo/prod/opt/applications/g16/c02/binary/g16/l103.exe)

 GradGradGradGradGradGradGradGradGradGradGradGradGradGradGradGradGradGrad
 Berny optimization.
 Initialization pass.
                           ----------------------------
                           !    Initial Parameters    !
                           ! (Angstroms and Degrees)  !
 --------------------------                            --------------------------
 ! Name  Definition              Value          Derivative Info.                !
 --------------------------------------------------------------------------------
 ! X50   R(50,-1)                6.015          Frozen                          !
 ! Y50   R(50,-2)               -1.9295         Frozen                          !
 ! Z50   R(50,-3)               -0.3283         Frozen                          !
 ! X51   R(51,-1)                6.2873         Frozen                          !
 ! Y51   R(51,-2)               -1.0235         Frozen                          !
 ! Z51   R(51,-3)               -0.5044         Frozen                          !
 ! X52   R(52,-1)                6.7916         Frozen                          !
 ! Y52   R(52,-2)               -2.4073         Frozen                          !
 ! Z52   R(52,-3)               -0.0226         Frozen                          !
 ! X53   R(53,-1)                3.6146         Frozen                          !
 ! Y53   R(53,-2)               -2.9881         Frozen                          !
 ! Z53   R(53,-3)               -1.5314         Frozen                          !
 ! X54   R(54,-1)                4.3945         Frozen                          !
 ! Y54   R(54,-2)               -2.6116         Frozen                          !
 ! Z54   R(54,-3)               -1.098          Frozen                          !
 ! X55   R(55,-1)                3.9279         Frozen                          !
 ! Y55   R(55,-2)               -3.7323         Frozen                          !
 ! Z55   R(55,-3)               -2.0523         Frozen                          !
 ! X56   R(56,-1)                2.8508         Frozen                          !
 ! Y56   R(56,-2)               -0.2986         Frozen                          !
 ! Z56   R(56,-3)                5.662          Frozen                          !
 ! X57   R(57,-1)                3.3094         Frozen                          !
 ! Y57   R(57,-2)                0.4895         Frozen                          !
 ! Z57   R(57,-3)                5.3537         Frozen                          !
 ! X58   R(58,-1)                3.389          Frozen                          !
 ! Y58   R(58,-2)               -0.6856         Frozen                          !
 ! Z58   R(58,-3)                6.3579         Frozen                          !
 ! X59   R(59,-1)                3.2585         Frozen                          !
 ! Y59   R(59,-2)                0.0791         Frozen                          !
 ! Z59   R(59,-3)               -5.588          Frozen                          !
 ! X60   R(60,-1)                2.9083         Frozen                          !
 ! Y60   R(60,-2)                0.0447         Frozen                          !
 ! Z60   R(60,-3)               -6.4828         Frozen                          !
 ! X61   R(61,-1)                3.9848         Frozen                          !
 ! Y61   R(61,-2)               -0.5499         Frozen                          !
 ! Z61   R(61,-3)               -5.5423         Frozen                          !
 ! X62   R(62,-1)                0.1379         Frozen                          !
 ! Y62   R(62,-2)               -5.7953         Frozen                          !
 ! Z62   R(62,-3)                0.6357         Frozen                          !
 ! X63   R(63,-1)                0.0184         Frozen                          !
 ! Y63   R(63,-2)               -6.4555         Frozen                          !
 ! Z63   R(63,-3)                1.3243         Frozen                          !
 ! X64   R(64,-1)                0.4088         Frozen                          !
 ! Y64   R(64,-2)               -6.2657         Frozen                          !
 ! Z64   R(64,-3)               -0.1576         Frozen                          !
 ! X65   R(65,-1)                3.6778         Frozen                          !
 ! Y65   R(65,-2)                6.3075         Frozen                          !
 ! Z65   R(65,-3)               -0.7036         Frozen                          !
 ! X66   R(66,-1)                3.4012         Frozen                          !
 ! Y66   R(66,-2)                6.8943         Frozen                          !
 ! Z66   R(66,-3)                0.0071         Frozen                          !
 ! X67   R(67,-1)                4.6311         Frozen                          !
 ! Y67   R(67,-2)                6.1987         Frozen                          !
 ! Z67   R(67,-3)               -0.6308         Frozen                          !
 ! X68   R(68,-1)               -0.8001         Frozen                          !
 ! Y68   R(68,-2)               -3.1075         Frozen                          !
 ! Z68   R(68,-3)               -3.7222         Frozen                          !
 ! X69   R(69,-1)               -1.441          Frozen                          !
 ! Y69   R(69,-2)               -2.8801         Frozen                          !
 ! Z69   R(69,-3)               -4.4022         Frozen                          !
 ! X70   R(70,-1)               -0.2863         Frozen                          !
 ! Y70   R(70,-2)               -3.8469         Frozen                          !
 ! Z70   R(70,-3)               -4.0595         Frozen                          !
 ! X71   R(71,-1)               -1.9665         Frozen                          !
 ! Y71   R(71,-2)               -2.9019         Frozen                          !
 ! Z71   R(71,-3)                3.9616         Frozen                          !
 ! X72   R(72,-1)               -2.7044         Frozen                          !
 ! Y72   R(72,-2)               -2.5216         Frozen                          !
 ! Z72   R(72,-3)                4.4473         Frozen                          !
 ! X73   R(73,-1)               -1.5218         Frozen                          !
 ! Y73   R(73,-2)               -3.5073         Frozen                          !
 ! Z73   R(73,-3)                4.5623         Frozen                          !
 ! X74   R(74,-1)               -4.866          Frozen                          !
 ! Y74   R(74,-2)                6.0008         Frozen                          !
 ! Z74   R(74,-3)                0.3893         Frozen                          !
 ! X75   R(75,-1)               -5.1296         Frozen                          !
 ! Y75   R(75,-2)                6.4398         Frozen                          !
 ! Z75   R(75,-3)               -0.4249         Frozen                          !
 ! X76   R(76,-1)               -4.0735         Frozen                          !
 ! Y76   R(76,-2)                6.4438         Frozen                          !
 ! Z76   R(76,-3)                0.7104         Frozen                          !
 ! X77   R(77,-1)               -8.3645         Frozen                          !
 ! Y77   R(77,-2)               -1.9788         Frozen                          !
 ! Z77   R(77,-3)               -2.0739         Frozen                          !
 ! X78   R(78,-1)               -7.5356         Frozen                          !
 ! Y78   R(78,-2)               -1.565          Frozen                          !
 ! Z78   R(78,-3)               -2.3346         Frozen                          !
 ! X79   R(79,-1)               -8.1687         Frozen                          !
 ! Y79   R(79,-2)               -2.8993         Frozen                          !
 ! Z79   R(79,-3)               -1.8743         Frozen                          !
 ! X80   R(80,-1)               -4.8328         Frozen                          !
 ! Y80   R(80,-2)                3.1901         Frozen                          !
 ! Z80   R(80,-3)                0.5682         Frozen                          !
 ! X81   R(81,-1)               -4.9181         Frozen                          !
 ! Y81   R(81,-2)                4.1665         Frozen                          !
 ! Z81   R(81,-3)                0.5781         Frozen                          !
 ! X82   R(82,-1)               -5.5301         Frozen                          !
 ! Y82   R(82,-2)                2.8249         Frozen                          !
 ! Z82   R(82,-3)                1.1514         Frozen                          !
 ! X83   R(83,-1)                8.1771         Frozen                          !
 ! Y83   R(83,-2)               -3.4434         Frozen                          !
 ! Z83   R(83,-3)                0.6647         Frozen                          !
 ! X84   R(84,-1)                8.0696         Frozen                          !
 ! Y84   R(84,-2)               -3.694          Frozen                          !
 ! Z84   R(84,-3)                1.5883         Frozen                          !
 ! X85   R(85,-1)                8.36           Frozen                          !
 ! Y85   R(85,-2)               -4.2491         Frozen                          !
 ! Z85   R(85,-3)                0.1708         Frozen                          !
 ! X86   R(86,-1)                4.6667         Frozen                          !
 ! Y86   R(86,-2)               -5.0693         Frozen                          !
 ! Z86   R(86,-3)               -3.319          Frozen                          !
 ! X87   R(87,-1)                5.3277         Frozen                          !
 ! Y87   R(87,-2)               -4.7683         Frozen                          !
 ! Z87   R(87,-3)               -3.9499         Frozen                          !
 ! X88   R(88,-1)                4.0389         Frozen                          !
 ! Y88   R(88,-2)               -5.613          Frozen                          !
 ! Z88   R(88,-3)               -3.8041         Frozen                          !
 ! X89   R(89,-1)                4.537          Frozen                          !
 ! Y89   R(89,-2)                1.8519         Frozen                          !
 ! Z89   R(89,-3)                4.8608         Frozen                          !
 ! X90   R(90,-1)                4.2868         Frozen                          !
 ! Y90   R(90,-2)                2.766          Frozen                          !
 ! Z90   R(90,-3)                4.6944         Frozen                          !
 ! X91   R(91,-1)                5.1427         Frozen                          !
 ! Y91   R(91,-2)                1.5914         Frozen                          !
 ! Z91   R(91,-3)                4.1592         Frozen                          !
 ! X92   R(92,-1)                6.7251         Frozen                          !
 ! Y92   R(92,-2)                3.4463         Frozen                          !
 ! Z92   R(92,-3)               -3.7944         Frozen                          !
 ! X93   R(93,-1)                6.0109         Frozen                          !
 ! Y93   R(93,-2)                3.673          Frozen                          !
 ! Z93   R(93,-3)               -4.3992         Frozen                          !
 ! X94   R(94,-1)                6.4013         Frozen                          !
 ! Y94   R(94,-2)                2.7243         Frozen                          !
 ! Z94   R(94,-3)               -3.2446         Frozen                          !
 ! X95   R(95,-1)               -0.1859         Frozen                          !
 ! Y95   R(95,-2)               -7.7869         Frozen                          !
 ! Z95   R(95,-3)                2.6869         Frozen                          !
 ! X96   R(96,-1)                0.3441         Frozen                          !
 ! Y96   R(96,-2)               -7.6795         Frozen                          !
 ! Z96   R(96,-3)                3.4829         Frozen                          !
 ! X97   R(97,-1)               -1.0508         Frozen                          !
 ! Y97   R(97,-2)               -8.1097         Frozen                          !
 ! Z97   R(97,-3)                2.9599         Frozen                          !
 ! X98   R(98,-1)                2.834          Frozen                          !
 ! Y98   R(98,-2)                7.9808         Frozen                          !
 ! Z98   R(98,-3)                1.3952         Frozen                          !
 ! X99   R(99,-1)                2.7586         Frozen                          !
 ! Y99   R(99,-2)                8.9347         Frozen                          !
 ! Z99   R(99,-3)                1.299          Frozen                          !
 ! X100  R(100,-1)               2.0785         Frozen                          !
 ! Y100  R(100,-2)               7.6851         Frozen                          !
 ! Z100  R(100,-3)               1.9131         Frozen                          !
 ! X101  R(101,-1)              -2.7914         Frozen                          !
 ! Y101  R(101,-2)              -2.5251         Frozen                          !
 ! Z101  R(101,-3)              -5.6907         Frozen                          !
 ! X102  R(102,-1)              -2.7942         Frozen                          !
 ! Y102  R(102,-2)              -1.6431         Frozen                          !
 ! Z102  R(102,-3)              -6.0756         Frozen                          !
 ! X103  R(103,-1)              -3.6639         Frozen                          !
 ! Y103  R(103,-2)              -2.6707         Frozen                          !
 ! Z103  R(103,-3)              -5.3117         Frozen                          !
 ! X104  R(104,-1)              -1.5979         Frozen                          !
 ! Y104  R(104,-2)              -0.1275         Frozen                          !
 ! Z104  R(104,-3)               8.3121         Frozen                          !
 ! X105  R(105,-1)              -1.2165         Frozen                          !
 ! Y105  R(105,-2)               0.6434         Frozen                          !
 ! Z105  R(105,-3)               7.879          Frozen                          !
 ! X106  R(106,-1)              -0.8996         Frozen                          !
 ! Y106  R(106,-2)              -0.7875         Frozen                          !
 ! Z106  R(106,-3)               8.3719         Frozen                          !
 ! X107  R(107,-1)              -0.9662         Frozen                          !
 ! Y107  R(107,-2)               8.9938         Frozen                          !
 ! Z107  R(107,-3)              -1.6418         Frozen                          !
 ! X108  R(108,-1)              -0.6702         Frozen                          !
 ! Y108  R(108,-2)               9.6296         Frozen                          !
 ! Z108  R(108,-3)              -2.2998         Frozen                          !
 ! X109  R(109,-1)              -0.6256         Frozen                          !
 ! Y109  R(109,-2)               8.1331         Frozen                          !
 ! Z109  R(109,-3)              -1.9085         Frozen                          !
 ! X110  R(110,-1)              -7.4997         Frozen                          !
 ! Y110  R(110,-2)              -4.6784         Frozen                          !
 ! Z110  R(110,-3)              -1.5176         Frozen                          !
 ! X111  R(111,-1)              -7.5594         Frozen                          !
 ! Y111  R(111,-2)              -5.1126         Frozen                          !
 ! Z111  R(111,-3)              -0.6609         Frozen                          !
 ! X112  R(112,-1)              -7.3107         Frozen                          !
 ! Y112  R(112,-2)              -5.3604         Frozen                          !
 ! Z112  R(112,-3)              -2.1698         Frozen                          !
 ! X113  R(113,-1)              -6.8386         Frozen                          !
 ! Y113  R(113,-2)               1.9845         Frozen                          !
 ! Z113  R(113,-3)               2.2165         Frozen                          !
 ! X114  R(114,-1)              -6.508          Frozen                          !
 ! Y114  R(114,-2)               1.5243         Frozen                          !
 ! Z114  R(114,-3)               2.9945         Frozen                          !
 ! X115  R(115,-1)              -7.4131         Frozen                          !
 ! Y115  R(115,-2)               1.3692         Frozen                          !
 ! Z115  R(115,-3)               1.7494         Frozen                          !
 ! X116  R(116,-1)              -5.1406         Frozen                          !
 ! Y116  R(116,-2)               2.6708         Frozen                          !
 ! Z116  R(116,-3)              -2.1642         Frozen                          !
 ! X117  R(117,-1)              -6.0826         Frozen                          !
 ! Y117  R(117,-2)               2.7428         Frozen                          !
 ! Z117  R(117,-3)              -2.3371         Frozen                          !
 ! X118  R(118,-1)              -5.0304         Frozen                          !
 ! Y118  R(118,-2)               2.7905         Frozen                          !
 ! Z118  R(118,-3)              -1.2025         Frozen                          !
 ! R1    R(1,2)                  1.4421         estimate D2E/DX2                !
 ! R2    R(1,12)                 1.445          estimate D2E/DX2                !
 ! R3    R(1,22)                 1.441          estimate D2E/DX2                !
 ! R4    R(2,3)                  1.5355         estimate D2E/DX2                !
 ! R5    R(2,4)                  1.1063         estimate D2E/DX2                !
 ! R6    R(2,5)                  1.0991         estimate D2E/DX2                !
 ! R7    R(3,6)                  1.5242         estimate D2E/DX2                !
 ! R8    R(3,7)                  1.1004         estimate D2E/DX2                !
 ! R9    R(3,8)                  1.1022         estimate D2E/DX2                !
 ! R10   R(4,32)                 2.5064         Frozen                          !
 ! R11   R(4,42)                 2.1651         estimate D2E/DX2                !
 ! R12   R(5,49)                 2.1449         estimate D2E/DX2                !
 ! R13   R(6,9)                  1.0987         estimate D2E/DX2                !
 ! R14   R(6,10)                 1.1007         estimate D2E/DX2                !
 ! R15   R(6,11)                 1.1004         estimate D2E/DX2                !
 ! R16   R(8,68)                 2.5072         estimate D2E/DX2                !
 ! R17   R(9,59)                 2.4499         estimate D2E/DX2                !
 ! R18   R(12,13)                1.535          estimate D2E/DX2                !
 ! R19   R(12,14)                1.1013         estimate D2E/DX2                !
 ! R20   R(12,15)                1.0989         estimate D2E/DX2                !
 ! R21   R(13,16)                1.5246         estimate D2E/DX2                !
 ! R22   R(13,17)                1.0998         estimate D2E/DX2                !
 ! R23   R(13,18)                1.1001         estimate D2E/DX2                !
 ! R24   R(15,41)                2.2729         estimate D2E/DX2                !
 ! R25   R(16,19)                1.0987         estimate D2E/DX2                !
 ! R26   R(16,20)                1.0998         estimate D2E/DX2                !
 ! R27   R(16,21)                1.1011         estimate D2E/DX2                !
 ! R28   R(17,62)                2.6173         estimate D2E/DX2                !
 ! R29   R(18,53)                2.4349         estimate D2E/DX2                !
 ! R30   R(20,54)                2.4865         estimate D2E/DX2                !
 ! R31   R(21,56)                3.6421         estimate D2E/DX2                !
 ! R32   R(22,23)                1.542          estimate D2E/DX2                !
 ! R33   R(22,24)                1.1026         estimate D2E/DX2                !
 ! R34   R(22,25)                1.1003         estimate D2E/DX2                !
 ! R35   R(23,26)                1.5247         estimate D2E/DX2                !
 ! R36   R(23,27)                1.1016         estimate D2E/DX2                !
 ! R37   R(23,28)                1.1012         estimate D2E/DX2                !
 ! R38   R(25,71)                2.4818         estimate D2E/DX2                !
 ! R39   R(26,29)                1.0983         estimate D2E/DX2                !
 ! R40   R(26,30)                1.1001         estimate D2E/DX2                !
 ! R41   R(26,31)                1.0996         estimate D2E/DX2                !
 ! R42   R(28,62)                2.6476         estimate D2E/DX2                !
 ! R43   R(29,110)               4.1597         estimate D2E/DX2                !
 ! R44   R(29,111)               4.1907         estimate D2E/DX2                !
 ! R45   R(31,78)                4.2673         estimate D2E/DX2                !
 ! R46   R(32,33)                0.9755         estimate D2E/DX2                !
 ! R47   R(32,34)                0.9785         estimate D2E/DX2                !
 ! R48   R(32,36)                1.832          estimate D2E/DX2                !
 ! R49   R(33,38)                1.9243         estimate D2E/DX2                !
 ! R50   R(34,44)                1.821          estimate D2E/DX2                !
 ! R51   R(35,36)                0.9766         estimate D2E/DX2                !
 ! R52   R(35,37)                0.9653         estimate D2E/DX2                !
 ! R53   R(35,39)                1.8339         estimate D2E/DX2                !
 ! R54   R(37,105)               4.6922         estimate D2E/DX2                !
 ! R55   R(38,39)                0.9774         estimate D2E/DX2                !
 ! R56   R(38,40)                0.9827         estimate D2E/DX2                !
 ! R57   R(38,49)                1.8123         estimate D2E/DX2                !
 ! R58   R(40,80)                1.7808         estimate D2E/DX2                !
 ! R59   R(41,42)                0.9683         estimate D2E/DX2                !
 ! R60   R(41,43)                0.9736         estimate D2E/DX2                !
 ! R61   R(43,44)                1.9042         estimate D2E/DX2                !
 ! R62   R(43,94)                4.6925         estimate D2E/DX2                !
 ! R63   R(44,45)                0.9904         estimate D2E/DX2                !
 ! R64   R(44,46)                0.9657         estimate D2E/DX2                !
 ! R65   R(45,65)                1.7211         estimate D2E/DX2                !
 ! R66   R(46,93)                4.7815         estimate D2E/DX2                !
 ! R67   R(46,109)               4.7811         estimate D2E/DX2                !
 ! R68   R(47,48)                0.9725         estimate D2E/DX2                !
 ! R69   R(47,49)                0.9763         estimate D2E/DX2                !
 ! R70   R(48,78)                4.2938         estimate D2E/DX2                !
 ! R71   R(50,51)                0.9623         estimate D2E/DX2                !
 ! R72   R(50,52)                0.9617         estimate D2E/DX2                !
 ! R73   R(50,54)                1.9193         estimate D2E/DX2                !
 ! R74   R(52,83)                1.8616         estimate D2E/DX2                !
 ! R75   R(53,54)                0.9685         estimate D2E/DX2                !
 ! R76   R(53,55)                0.9609         estimate D2E/DX2                !
 ! R77   R(55,86)                1.9845         estimate D2E/DX2                !
 ! R78   R(56,57)                0.9625         estimate D2E/DX2                !
 ! R79   R(56,58)                0.9611         estimate D2E/DX2                !
 ! R80   R(56,105)               4.727          estimate D2E/DX2                !
 ! R81   R(56,106)               4.6527         estimate D2E/DX2                !
 ! R82   R(57,89)                1.899          estimate D2E/DX2                !
 ! R83   R(58,106)               4.7391         estimate D2E/DX2                !
 ! R84   R(59,60)                0.9615         estimate D2E/DX2                !
 ! R85   R(59,61)                0.9619         estimate D2E/DX2                !
 ! R86   R(59,93)                4.6804         estimate D2E/DX2                !
 ! R87   R(62,63)                0.9614         estimate D2E/DX2                !
 ! R88   R(62,64)                0.9613         estimate D2E/DX2                !
 ! R89   R(63,95)                1.916          estimate D2E/DX2                !
 ! R90   R(65,66)                0.9622         estimate D2E/DX2                !
 ! R91   R(65,67)                0.9623         estimate D2E/DX2                !
 ! R92   R(66,98)                1.8519         estimate D2E/DX2                !
 ! R93   R(66,109)               4.6281         estimate D2E/DX2                !
 ! R94   R(67,92)                4.6871         estimate D2E/DX2                !
 ! R95   R(67,93)                4.7417         estimate D2E/DX2                !
 ! R96   R(68,69)                0.9617         estimate D2E/DX2                !
 ! R97   R(68,70)                0.9615         estimate D2E/DX2                !
 ! R98   R(69,101)               1.9            estimate D2E/DX2                !
 ! R99   R(71,72)                0.9618         estimate D2E/DX2                !
 ! R100  R(71,73)                0.9618         estimate D2E/DX2                !
 ! R101  R(72,104)               4.679          estimate D2E/DX2                !
 ! R102  R(74,75)                0.9619         estimate D2E/DX2                !
 ! R103  R(74,76)                0.963          estimate D2E/DX2                !
 ! R104  R(74,81)                1.8447         estimate D2E/DX2                !
 ! R105  R(76,107)               4.6573         estimate D2E/DX2                !
 ! R106  R(76,109)               4.6476         estimate D2E/DX2                !
 ! R107  R(77,78)                0.9624         estimate D2E/DX2                !
 ! R108  R(77,79)                0.962          estimate D2E/DX2                !
 ! R109  R(79,110)               1.9339         estimate D2E/DX2                !
 ! R110  R(80,81)                0.9802         estimate D2E/DX2                !
 ! R111  R(80,82)                0.9797         estimate D2E/DX2                !
 ! R112  R(80,118)               1.826          estimate D2E/DX2                !
 ! R113  R(82,113)               1.8849         estimate D2E/DX2                !
 ! R114  R(83,84)                0.9629         estimate D2E/DX2                !
 ! R115  R(83,85)                0.9625         estimate D2E/DX2                !
 ! R116  R(86,87)                0.962          estimate D2E/DX2                !
 ! R117  R(86,88)                0.9618         estimate D2E/DX2                !
 ! R118  R(89,90)                0.9622         estimate D2E/DX2                !
 ! R119  R(89,91)                0.9628         estimate D2E/DX2                !
 ! R120  R(92,93)                0.9629         estimate D2E/DX2                !
 ! R121  R(92,94)                0.9635         estimate D2E/DX2                !
 ! R122  R(95,96)                0.9623         estimate D2E/DX2                !
 ! R123  R(95,97)                0.9627         estimate D2E/DX2                !
 ! R124  R(98,99)                0.9617         estimate D2E/DX2                !
 ! R125  R(98,100)               0.9626         estimate D2E/DX2                !
 ! R126  R(99,107)               4.7461         estimate D2E/DX2                !
 ! R127  R(101,102)              0.9623         estimate D2E/DX2                !
 ! R128  R(101,103)              0.9623         estimate D2E/DX2                !
 ! R129  R(104,105)              0.963          estimate D2E/DX2                !
 ! R130  R(104,106)              0.9627         estimate D2E/DX2                !
 ! R131  R(107,108)              0.9617         estimate D2E/DX2                !
 ! R132  R(107,109)              0.9633         estimate D2E/DX2                !
 ! R133  R(110,111)              0.9623         estimate D2E/DX2                !
 ! R134  R(110,112)              0.9625         estimate D2E/DX2                !
 ! R135  R(113,114)              0.9625         estimate D2E/DX2                !
 ! R136  R(113,115)              0.9628         estimate D2E/DX2                !
 ! R137  R(116,117)              0.9605         estimate D2E/DX2                !
 ! R138  R(116,118)              0.9754         estimate D2E/DX2                !
 ! A1    A(2,1,12)             119.6974         estimate D2E/DX2                !
 ! A2    A(2,1,22)             119.401          estimate D2E/DX2                !
 ! A3    A(12,1,22)            120.8934         estimate D2E/DX2                !
 ! A4    A(1,2,3)              113.3513         estimate D2E/DX2                !
 ! A5    A(1,2,4)              105.8202         estimate D2E/DX2                !
 ! A6    A(1,2,5)              108.3539         estimate D2E/DX2                !
 ! A7    A(3,2,4)              108.6891         estimate D2E/DX2                !
 ! A8    A(3,2,5)              111.4494         estimate D2E/DX2                !
 ! A9    A(4,2,5)              108.9555         estimate D2E/DX2                !
 ! A10   A(2,3,6)              109.3804         estimate D2E/DX2                !
 ! A11   A(2,3,7)              110.0806         estimate D2E/DX2                !
 ! A12   A(2,3,8)              108.9921         estimate D2E/DX2                !
 ! A13   A(6,3,7)              109.9835         estimate D2E/DX2                !
 ! A14   A(6,3,8)              110.8044         estimate D2E/DX2                !
 ! A15   A(7,3,8)              107.5765         estimate D2E/DX2                !
 ! A16   A(2,4,42)             143.3858         estimate D2E/DX2                !
 ! A17   A(2,5,49)             145.7682         estimate D2E/DX2                !
 ! A18   A(3,6,9)              111.4292         estimate D2E/DX2                !
 ! A19   A(3,6,10)             110.9687         estimate D2E/DX2                !
 ! A20   A(3,6,11)             109.7225         estimate D2E/DX2                !
 ! A21   A(9,6,10)             108.1619         estimate D2E/DX2                !
 ! A22   A(9,6,11)             108.3766         estimate D2E/DX2                !
 ! A23   A(10,6,11)            108.0796         estimate D2E/DX2                !
 ! A24   A(1,12,13)            112.6325         estimate D2E/DX2                !
 ! A25   A(1,12,14)            106.2642         estimate D2E/DX2                !
 ! A26   A(1,12,15)            107.5722         estimate D2E/DX2                !
 ! A27   A(13,12,14)           110.2504         estimate D2E/DX2                !
 ! A28   A(13,12,15)           111.0734         estimate D2E/DX2                !
 ! A29   A(14,12,15)           108.8547         estimate D2E/DX2                !
 ! A30   A(12,13,16)           109.8945         estimate D2E/DX2                !
 ! A31   A(12,13,17)           110.2192         estimate D2E/DX2                !
 ! A32   A(12,13,18)           109.6392         estimate D2E/DX2                !
 ! A33   A(16,13,17)           110.7006         estimate D2E/DX2                !
 ! A34   A(16,13,18)           108.5019         estimate D2E/DX2                !
 ! A35   A(17,13,18)           107.8379         estimate D2E/DX2                !
 ! A36   A(12,15,41)           154.9271         estimate D2E/DX2                !
 ! A37   A(13,16,19)           109.8631         estimate D2E/DX2                !
 ! A38   A(13,16,20)           110.9393         estimate D2E/DX2                !
 ! A39   A(13,16,21)           111.6337         estimate D2E/DX2                !
 ! A40   A(19,16,20)           107.5358         estimate D2E/DX2                !
 ! A41   A(19,16,21)           108.248          estimate D2E/DX2                !
 ! A42   A(20,16,21)           108.4915         estimate D2E/DX2                !
 ! A43   A(13,17,62)           130.7126         estimate D2E/DX2                !
 ! A44   A(13,18,53)           135.0045         estimate D2E/DX2                !
 ! A45   A(16,20,54)           125.5018         estimate D2E/DX2                !
 ! A46   A(16,21,56)           159.145          estimate D2E/DX2                !
 ! A47   A(1,22,23)            111.8923         estimate D2E/DX2                !
 ! A48   A(1,22,24)            106.4908         estimate D2E/DX2                !
 ! A49   A(1,22,25)            109.2561         estimate D2E/DX2                !
 ! A50   A(23,22,24)           108.5122         estimate D2E/DX2                !
 ! A51   A(23,22,25)           110.7176         estimate D2E/DX2                !
 ! A52   A(24,22,25)           109.8719         estimate D2E/DX2                !
 ! A53   A(22,23,26)           109.0565         estimate D2E/DX2                !
 ! A54   A(22,23,27)           109.99           estimate D2E/DX2                !
 ! A55   A(22,23,28)           109.3524         estimate D2E/DX2                !
 ! A56   A(26,23,27)           110.5454         estimate D2E/DX2                !
 ! A57   A(26,23,28)           110.5777         estimate D2E/DX2                !
 ! A58   A(27,23,28)           107.2988         estimate D2E/DX2                !
 ! A59   A(22,25,71)           162.0938         estimate D2E/DX2                !
 ! A60   A(23,26,29)           110.8761         estimate D2E/DX2                !
 ! A61   A(23,26,30)           110.5877         estimate D2E/DX2                !
 ! A62   A(23,26,31)           110.2882         estimate D2E/DX2                !
 ! A63   A(29,26,30)           108.2069         estimate D2E/DX2                !
 ! A64   A(29,26,31)           108.2514         estimate D2E/DX2                !
 ! A65   A(30,26,31)           108.5498         estimate D2E/DX2                !
 ! A66   A(26,29,110)          120.5046         estimate D2E/DX2                !
 ! A67   A(26,29,111)          118.6689         estimate D2E/DX2                !
 ! A68   A(26,31,78)           140.3468         estimate D2E/DX2                !
 ! A69   A(33,32,34)           107.7611         estimate D2E/DX2                !
 ! A70   A(33,32,36)            91.0298         estimate D2E/DX2                !
 ! A71   A(34,32,36)           151.863          estimate D2E/DX2                !
 ! A72   A(32,33,38)           147.6155         estimate D2E/DX2                !
 ! A73   A(36,35,37)           105.7609         estimate D2E/DX2                !
 ! A74   A(36,35,39)            89.0177         estimate D2E/DX2                !
 ! A75   A(37,35,39)           121.2992         estimate D2E/DX2                !
 ! A76   A(32,36,35)           148.3731         estimate D2E/DX2                !
 ! A77   A(33,38,39)            86.42           estimate D2E/DX2                !
 ! A78   A(33,38,40)           124.2851         estimate D2E/DX2                !
 ! A79   A(33,38,49)           130.1708         estimate D2E/DX2                !
 ! A80   A(39,38,40)           107.2469         estimate D2E/DX2                !
 ! A81   A(39,38,49)           112.8134         estimate D2E/DX2                !
 ! A82   A(40,38,49)            94.5044         estimate D2E/DX2                !
 ! A83   A(35,39,38)           151.1908         estimate D2E/DX2                !
 ! A84   A(38,40,80)           163.9154         estimate D2E/DX2                !
 ! A85   A(15,41,42)            81.6195         estimate D2E/DX2                !
 ! A86   A(15,41,43)           157.4198         estimate D2E/DX2                !
 ! A87   A(42,41,43)           100.5021         estimate D2E/DX2                !
 ! A88   A(4,42,41)             96.8799         estimate D2E/DX2                !
 ! A89   A(41,43,44)           152.7955         estimate D2E/DX2                !
 ! A90   A(41,43,94)           121.4986         estimate D2E/DX2                !
 ! A91   A(44,43,94)            85.6993         estimate D2E/DX2                !
 ! A92   A(34,44,43)            76.8228         estimate D2E/DX2                !
 ! A93   A(34,44,45)           122.2854         estimate D2E/DX2                !
 ! A94   A(34,44,46)           112.3763         estimate D2E/DX2                !
 ! A95   A(43,44,45)           122.5858         estimate D2E/DX2                !
 ! A96   A(43,44,46)           116.9004         estimate D2E/DX2                !
 ! A97   A(45,44,46)           104.5912         estimate D2E/DX2                !
 ! A98   A(44,46,93)           104.631          estimate D2E/DX2                !
 ! A99   A(44,46,109)          101.72           estimate D2E/DX2                !
 ! A100  A(93,46,109)          122.2773         estimate D2E/DX2                !
 ! A101  A(48,47,49)           102.5105         estimate D2E/DX2                !
 ! A102  A(47,48,78)           100.3661         estimate D2E/DX2                !
 ! A103  A(5,49,38)             90.1097         estimate D2E/DX2                !
 ! A104  A(5,49,47)             93.6629         estimate D2E/DX2                !
 ! A105  A(51,50,52)           107.3028         estimate D2E/DX2                !
 ! A106  A(51,50,54)           120.0081         estimate D2E/DX2                !
 ! A107  A(52,50,54)           129.2508         estimate D2E/DX2                !
 ! A108  A(18,53,54)           111.1113         estimate D2E/DX2                !
 ! A109  A(18,53,55)           128.1992         estimate D2E/DX2                !
 ! A110  A(54,53,55)           106.3195         estimate D2E/DX2                !
 ! A111  A(20,54,50)            80.5744         estimate D2E/DX2                !
 ! A112  A(20,54,53)           102.9298         estimate D2E/DX2                !
 ! A113  A(21,56,57)           105.1289         estimate D2E/DX2                !
 ! A114  A(21,56,58)           110.0494         estimate D2E/DX2                !
 ! A115  A(21,56,105)          117.8753         estimate D2E/DX2                !
 ! A116  A(21,56,106)          111.8891         estimate D2E/DX2                !
 ! A117  A(57,56,58)           107.1538         estimate D2E/DX2                !
 ! A118  A(57,56,105)          113.394          estimate D2E/DX2                !
 ! A119  A(57,56,106)          131.0471         estimate D2E/DX2                !
 ! A120  A(58,56,105)          102.8577         estimate D2E/DX2                !
 ! A121  A(105,56,106)          18.9544         estimate D2E/DX2                !
 ! A122  A(9,59,60)            120.4015         estimate D2E/DX2                !
 ! A123  A(9,59,61)            118.9611         estimate D2E/DX2                !
 ! A124  A(9,59,93)             95.7101         estimate D2E/DX2                !
 ! A125  A(60,59,61)           107.2126         estimate D2E/DX2                !
 ! A126  A(60,59,93)           118.5573         estimate D2E/DX2                !
 ! A127  A(61,59,93)            92.6318         estimate D2E/DX2                !
 ! A128  A(17,62,28)            51.6019         estimate D2E/DX2                !
 ! A129  A(17,62,63)           118.0066         estimate D2E/DX2                !
 ! A130  A(17,62,64)           128.4758         estimate D2E/DX2                !
 ! A131  A(28,62,63)           133.3184         estimate D2E/DX2                !
 ! A132  A(28,62,64)           111.3286         estimate D2E/DX2                !
 ! A133  A(63,62,64)           106.8563         estimate D2E/DX2                !
 ! A134  A(45,65,66)           114.9911         estimate D2E/DX2                !
 ! A135  A(45,65,67)           115.6466         estimate D2E/DX2                !
 ! A136  A(66,65,67)           107.3257         estimate D2E/DX2                !
 ! A137  A(65,66,109)           96.1778         estimate D2E/DX2                !
 ! A138  A(98,66,109)           83.4953         estimate D2E/DX2                !
 ! A139  A(65,67,92)           117.2525         estimate D2E/DX2                !
 ! A140  A(65,67,93)           106.7615         estimate D2E/DX2                !
 ! A141  A(8,68,69)            123.3624         estimate D2E/DX2                !
 ! A142  A(8,68,70)            117.1227         estimate D2E/DX2                !
 ! A143  A(69,68,70)           106.8564         estimate D2E/DX2                !
 ! A144  A(25,71,72)           116.4406         estimate D2E/DX2                !
 ! A145  A(25,71,73)           135.3099         estimate D2E/DX2                !
 ! A146  A(72,71,73)           106.7535         estimate D2E/DX2                !
 ! A147  A(71,72,104)          115.9761         estimate D2E/DX2                !
 ! A148  A(75,74,76)           107.3239         estimate D2E/DX2                !
 ! A149  A(75,74,81)           122.1921         estimate D2E/DX2                !
 ! A150  A(76,74,81)           116.5221         estimate D2E/DX2                !
 ! A151  A(74,76,107)          129.2391         estimate D2E/DX2                !
 ! A152  A(74,76,109)          126.1466         estimate D2E/DX2                !
 ! A153  A(78,77,79)           106.9968         estimate D2E/DX2                !
 ! A154  A(31,78,48)            50.9074         estimate D2E/DX2                !
 ! A155  A(31,78,77)           121.2523         estimate D2E/DX2                !
 ! A156  A(48,78,77)           156.0375         estimate D2E/DX2                !
 ! A157  A(40,80,81)           115.6384         estimate D2E/DX2                !
 ! A158  A(40,80,82)           121.0705         estimate D2E/DX2                !
 ! A159  A(40,80,118)           93.0518         estimate D2E/DX2                !
 ! A160  A(81,80,82)           107.6609         estimate D2E/DX2                !
 ! A161  A(81,80,118)          102.6157         estimate D2E/DX2                !
 ! A162  A(82,80,118)          114.7485         estimate D2E/DX2                !
 ! A163  A(52,83,84)           114.5712         estimate D2E/DX2                !
 ! A164  A(52,83,85)           114.696          estimate D2E/DX2                !
 ! A165  A(84,83,85)           107.1884         estimate D2E/DX2                !
 ! A166  A(55,86,87)           117.6222         estimate D2E/DX2                !
 ! A167  A(55,86,88)           117.3734         estimate D2E/DX2                !
 ! A168  A(87,86,88)           107.1363         estimate D2E/DX2                !
 ! A169  A(57,89,90)           123.9397         estimate D2E/DX2                !
 ! A170  A(57,89,91)           113.6898         estimate D2E/DX2                !
 ! A171  A(90,89,91)           107.1293         estimate D2E/DX2                !
 ! A172  A(67,92,94)            84.5355         estimate D2E/DX2                !
 ! A173  A(93,92,94)           106.5963         estimate D2E/DX2                !
 ! A174  A(46,93,59)            72.6199         estimate D2E/DX2                !
 ! A175  A(46,93,67)            44.9282         estimate D2E/DX2                !
 ! A176  A(46,93,92)           108.981          estimate D2E/DX2                !
 ! A177  A(59,93,67)           116.088          estimate D2E/DX2                !
 ! A178  A(59,93,92)           114.5125         estimate D2E/DX2                !
 ! A179  A(43,94,92)           132.7635         estimate D2E/DX2                !
 ! A180  A(63,95,96)           116.8768         estimate D2E/DX2                !
 ! A181  A(63,95,97)           122.0382         estimate D2E/DX2                !
 ! A182  A(96,95,97)           107.3119         estimate D2E/DX2                !
 ! A183  A(66,98,99)           122.0702         estimate D2E/DX2                !
 ! A184  A(66,98,100)          117.6108         estimate D2E/DX2                !
 ! A185  A(99,98,100)          107.2798         estimate D2E/DX2                !
 ! A186  A(98,99,107)           97.8096         estimate D2E/DX2                !
 ! A187  A(69,101,102)         116.3914         estimate D2E/DX2                !
 ! A188  A(69,101,103)         110.4333         estimate D2E/DX2                !
 ! A189  A(102,101,103)        107.0699         estimate D2E/DX2                !
 ! A190  A(72,104,105)          97.5753         estimate D2E/DX2                !
 ! A191  A(72,104,106)          82.6502         estimate D2E/DX2                !
 ! A192  A(105,104,106)        106.8186         estimate D2E/DX2                !
 ! A193  A(37,105,56)           57.3522         estimate D2E/DX2                !
 ! A194  A(37,105,104)         124.825          estimate D2E/DX2                !
 ! A195  A(56,105,104)         113.0942         estimate D2E/DX2                !
 ! A196  A(56,106,104)         118.4582         estimate D2E/DX2                !
 ! A197  A(58,106,104)         127.9756         estimate D2E/DX2                !
 ! A198  A(76,107,99)          101.7641         estimate D2E/DX2                !
 ! A199  A(76,107,108)         155.9067         estimate D2E/DX2                !
 ! A200  A(99,107,108)         100.9915         estimate D2E/DX2                !
 ! A201  A(99,107,109)          83.2799         estimate D2E/DX2                !
 ! A202  A(108,107,109)        107.0051         estimate D2E/DX2                !
 ! A203  A(46,109,66)           46.1126         estimate D2E/DX2                !
 ! A204  A(46,109,76)           95.3807         estimate D2E/DX2                !
 ! A205  A(46,109,107)         160.6914         estimate D2E/DX2                !
 ! A206  A(66,109,76)          108.3577         estimate D2E/DX2                !
 ! A207  A(66,109,107)         115.606          estimate D2E/DX2                !
 ! A208  A(29,110,79)          102.8275         estimate D2E/DX2                !
[...]
  Beta virt. eigenvalues --    1.09649   1.09804   1.10170   1.10400   1.10419
  Beta virt. eigenvalues --    1.10503   1.10919   1.11138   1.11278   1.11390
  Beta virt. eigenvalues --    1.12021   1.12296   1.12826   1.13230   1.13555
  Beta virt. eigenvalues --    1.13807   1.14136   1.14211   1.14344   1.14396
  Beta virt. eigenvalues --    1.14587   1.14742   1.14777   1.15191   1.15813
  Beta virt. eigenvalues --    1.16025   1.16910   1.17589   1.18723   1.19348
  Beta virt. eigenvalues --    1.19439   1.20289   1.21519   1.22053   1.22640
  Beta virt. eigenvalues --    1.23569   1.24208   1.25243   1.25320   1.26076
  Beta virt. eigenvalues --    1.27059   1.27839   1.29308   1.29970   1.30634
  Beta virt. eigenvalues --    1.31180   1.31417   1.31592   1.31999   1.32546
  Beta virt. eigenvalues --    1.32906   1.33613   1.34771   1.35517   1.36308
  Beta virt. eigenvalues --    1.36440   1.36744   1.37248   1.37367   1.37391
  Beta virt. eigenvalues --    1.37403   1.37529   1.37707   1.37716   1.37777
  Beta virt. eigenvalues --    1.37874   1.37939   1.38338   1.38614   1.38622
  Beta virt. eigenvalues --    1.38704   1.39010   1.39057   1.39077   1.39137
  Beta virt. eigenvalues --    1.39145   1.39515   1.39712   1.39935   1.40350
  Beta virt. eigenvalues --    1.40505   1.40729   1.40946   1.41150   1.41222
  Beta virt. eigenvalues --    1.41391   1.41761   1.42193   1.42277   1.42488
  Beta virt. eigenvalues --    1.43527   1.43690   1.44516   1.44683   1.45138
  Beta virt. eigenvalues --    1.46383   1.46883   1.47114   1.47344   1.47674
  Beta virt. eigenvalues --    1.47831   1.48153   1.48304   1.48367   1.48448
  Beta virt. eigenvalues --    1.48731   1.48983   1.49186   1.49400   1.49429
  Beta virt. eigenvalues --    1.49819   1.50292   1.51398   1.51967   1.53143
  Beta virt. eigenvalues --    1.54083   1.54314   1.54958   1.55882   1.56475
  Beta virt. eigenvalues --    1.57219   1.57676   1.58195   1.58457   1.58659
  Beta virt. eigenvalues --    1.58918   1.59152   1.59494   1.59570   1.60151
  Beta virt. eigenvalues --    1.60607   1.60909   1.61023   1.61105   1.61164
  Beta virt. eigenvalues --    1.61347   1.61856   1.62293   1.62506   1.62616
  Beta virt. eigenvalues --    1.62774   1.63276   1.63558   1.64047   1.64330
  Beta virt. eigenvalues --    1.64758   1.64822   1.65222   1.66069   1.66186
  Beta virt. eigenvalues --    1.66400   1.66716   1.66766   1.67287   1.67564
  Beta virt. eigenvalues --    1.67808   1.68282   1.68505   1.69622   1.70241
  Beta virt. eigenvalues --    1.70356   1.70802   1.71407   1.72314   1.72984
  Beta virt. eigenvalues --    1.74032   1.78297   1.79088   1.79302   1.80218
  Beta virt. eigenvalues --    1.80564   1.80622   1.80797   1.80853   1.80971
  Beta virt. eigenvalues --    1.81099   1.81124   1.81243   1.81305   1.81366
  Beta virt. eigenvalues --    1.81457   1.81493   1.81563   1.81729   1.81993
  Beta virt. eigenvalues --    1.82267   1.82285   1.82539   1.82890   1.82971
  Beta virt. eigenvalues --    1.83397   1.83753   1.84164   1.84384   1.84819
  Beta virt. eigenvalues --    1.84910   1.85115   1.85408   1.85755   1.86323
  Beta virt. eigenvalues --    1.86474   1.86797   1.87338   1.87643   1.87759
  Beta virt. eigenvalues --    1.88020   1.88826   1.89877   1.90300   1.90604
  Beta virt. eigenvalues --    1.91067   1.91393   1.92420   1.92633   1.93338
  Beta virt. eigenvalues --    1.94004   1.95055   1.95411   1.95622   1.96234
  Beta virt. eigenvalues --    1.97669   1.98288   1.98702   1.99384   2.00613
  Beta virt. eigenvalues --    2.01644   2.02103   2.03122   2.03844   2.05469
  Beta virt. eigenvalues --    2.07116   2.07998   2.08732   2.11269   2.14117
  Beta virt. eigenvalues --    2.14471   2.15417   2.21151   2.23942   2.26840
  Beta virt. eigenvalues --    2.27529   2.27635   2.27699   2.27733   2.27863
  Beta virt. eigenvalues --    2.27900   2.27940   2.28072   2.28093   2.28294
  Beta virt. eigenvalues --    2.28611   2.29043   2.29067   2.29249   2.29257
  Beta virt. eigenvalues --    2.29318   2.29411   2.29497   2.29605   2.29662
  Beta virt. eigenvalues --    2.29703   2.30443   2.30719   2.30800   2.30876
  Beta virt. eigenvalues --    2.30986   2.31113   2.31125   2.31224   2.31515
  Beta virt. eigenvalues --    2.31771   2.31986   2.32154   2.32191   2.32261
  Beta virt. eigenvalues --    2.32270   2.32363   2.32491   2.32503   2.32610
  Beta virt. eigenvalues --    2.33335   2.34716   2.36785   2.38028   2.39214
  Beta virt. eigenvalues --    2.39668   2.40681   2.41226   2.41833   2.42460
  Beta virt. eigenvalues --    2.42807   2.42922   2.43436   2.43653   2.44129
  Beta virt. eigenvalues --    2.44572   2.45123   2.45684   2.46574   2.46796
  Beta virt. eigenvalues --    2.47012   2.47074   2.48267   2.49020   2.49384
  Beta virt. eigenvalues --    2.49421   2.49837   2.50069   2.50899   2.52400
  Beta virt. eigenvalues --    2.54126   2.54803   2.56216   2.60017   2.60489
  Beta virt. eigenvalues --    2.61008   2.61403   2.61550   2.62167   2.62998
  Beta virt. eigenvalues --    2.69847   2.70698   2.72015   2.76338   2.76855
  Beta virt. eigenvalues --    2.85375   2.86404   2.87563   2.88076   2.91280
  Beta virt. eigenvalues --    2.92142   2.92565   2.94744   2.95508   2.96059
  Beta virt. eigenvalues --    2.96486   2.96995   2.98489   2.98540   2.98607
  Beta virt. eigenvalues --    2.98671   2.98742   2.98813   2.98841   2.98877
  Beta virt. eigenvalues --    2.98906   2.99056   2.99585   2.99779   2.99995
  Beta virt. eigenvalues --    3.00166   3.00296   3.00548   3.00633   3.00645
  Beta virt. eigenvalues --    3.00720   3.00812   3.01543   3.01810   3.01873
  Beta virt. eigenvalues --    3.02140   3.02222   3.02264   3.02778   3.03385
  Beta virt. eigenvalues --    3.03692   3.03804   3.04125   3.04446   3.05219
  Beta virt. eigenvalues --    3.05421   3.05487   3.05615   3.05742   3.05867
  Beta virt. eigenvalues --    3.05882   3.05905   3.06170   3.06238   3.06269
  Beta virt. eigenvalues --    3.06411   3.06724   3.07090   3.07529   3.07553
  Beta virt. eigenvalues --    3.07730   3.07845   3.07937   3.07946   3.08129
  Beta virt. eigenvalues --    3.08248   3.08481   3.08501   3.08807   3.09241
  Beta virt. eigenvalues --    3.09341   3.09463   3.09714   3.10045   3.10672
  Beta virt. eigenvalues --    3.11746   3.13643   3.20179   3.21238   3.21341
  Beta virt. eigenvalues --    3.21578   3.21778   3.21805   3.21848   3.21862
  Beta virt. eigenvalues --    3.21970   3.22065   3.22445   3.22501   3.22528
  Beta virt. eigenvalues --    3.22670   3.22935   3.23023   3.23126   3.23205
  Beta virt. eigenvalues --    3.23422   3.23537   3.24158   3.24395   3.24443
  Beta virt. eigenvalues --    3.25084   3.25404   3.26285   3.26499   3.28034
  Beta virt. eigenvalues --    3.28072   3.28790   3.30264   3.53777   3.54695
  Beta virt. eigenvalues --    3.55086   3.55322   3.55365   3.55432   3.55527
  Beta virt. eigenvalues --    3.55806   3.56132   3.56147   3.56536   3.56723
  Beta virt. eigenvalues --    3.57025   3.57085   3.57120   3.57247   3.57684
  Beta virt. eigenvalues --    3.58606   3.59001   3.59333   3.59899   3.60058
  Beta virt. eigenvalues --    3.60240   3.60249   3.60422   3.60467   3.60911
  Beta virt. eigenvalues --    3.62457   3.62619   3.82534   3.82636   3.82793
  Beta virt. eigenvalues --    3.82803   3.82839   3.82935   3.83062   3.83168
  Beta virt. eigenvalues --    3.83237   3.83587   3.84050   3.84109   3.84234
  Beta virt. eigenvalues --    3.84310   3.85216   3.85437   3.86167   3.86873
  Beta virt. eigenvalues --    3.86935   3.87144   3.87287   3.87905   3.87976
  Beta virt. eigenvalues --    3.89036   3.91659   3.92038   3.93587   3.95160
  Beta virt. eigenvalues --    3.96416
          Condensed to atoms (all electrons):
          Atomic-Atomic Spin Densities.
 Mulliken charges and spin densities:
               1          2
     1  N   -0.147170   0.842111
     2  C    0.038115  -0.059193
     3  C   -0.101643   0.048812
     4  H   -0.005083   0.059261
     5  H    0.055699   0.001402
     6  C   -0.076447   0.005585
     7  H    0.050735  -0.002529
     8  H    0.052178   0.000564
     9  H    0.046410   0.001197
    10  H    0.040914  -0.000354
    11  H    0.013239  -0.000244
    12  C    0.009150  -0.051474
    13  C   -0.100383   0.050256
    14  H    0.081904   0.038415
    15  H    0.074400   0.003180
    16  C   -0.072822   0.007732
    17  H    0.063635  -0.002267
    18  H    0.048908  -0.000839
    19  H    0.045957   0.002136
    20  H    0.036137  -0.000310
    21  H    0.037959  -0.000689
    22  C    0.020857  -0.056024
    23  C   -0.105822   0.059349
    24  H    0.054968   0.033579
    25  H    0.079206   0.007495
    26  C   -0.079906   0.008792
    27  H    0.053734  -0.002495
    28  H    0.054995  -0.001123
    29  H    0.053478   0.002162
    30  H    0.043430  -0.000464
    31  H    0.046361  -0.000462
    32  O   -0.389298   0.001619
    33  H    0.197922   0.000173
    34  H    0.186347   0.000038
    35  O   -0.345594   0.001651
    36  H    0.195489  -0.000172
    37  H    0.216184   0.000619
    38  O   -0.393248   0.000399
    39  H    0.192456  -0.000542
    40  H    0.205699   0.000143
    41  O   -0.350140   0.001376
    42  H    0.175197  -0.000005
    43  H    0.182665   0.000110
    44  O   -0.379890   0.000001
    45  H    0.206480   0.000001
    46  H    0.217482  -0.000008
    47  O   -0.392733   0.000162
    48  H    0.163049   0.000156
    49  H    0.164910  -0.000038
    50  O   -0.359943  -0.000002
    51  H    0.198051   0.000000
    52  H    0.169394  -0.000000
    53  O   -0.392159   0.000052
    54  H    0.171453   0.000009
    55  H    0.155917  -0.000012
    56  O   -0.409343   0.000034
    57  H    0.165904  -0.000005
    58  H    0.183834   0.000005
    59  O   -0.348197   0.000044
    60  H    0.194215   0.000005
    61  H    0.194465   0.000005
    62  O   -0.362113   0.000055
    63  H    0.162395   0.000016
    64  H    0.185566  -0.000002
    65  O   -0.367428   0.000001
    66  H    0.183968  -0.000000
    67  H    0.209196  -0.000000
    68  O   -0.357532   0.000093
    69  H    0.160261   0.000005
    70  H    0.185525  -0.000003
    71  O   -0.341912   0.000335
    72  H    0.196133   0.000028
    73  H    0.194223   0.000048
    74  O   -0.347116   0.000000
    75  H    0.212076   0.000000
    76  H    0.213056   0.000000
    77  O   -0.410260  -0.000000
    78  H    0.183116   0.000000
    79  H    0.167090   0.000000
    80  O   -0.388192   0.000018
    81  H    0.205351   0.000000
    82  H    0.199759   0.000000
    83  O   -0.347405  -0.000000
    84  H    0.211512   0.000000
    85  H    0.211579  -0.000000
    86  O   -0.348924   0.000001
    87  H    0.204665  -0.000000
    88  H    0.205604   0.000000
    89  O   -0.349710   0.000005
    90  H    0.207683  -0.000000
    91  H    0.207589   0.000001
    92  O   -0.384256  -0.000000
    93  H    0.192053   0.000000
    94  H    0.192188   0.000000
    95  O   -0.349337   0.000001
    96  H    0.208337   0.000000
    97  H    0.208280   0.000000
    98  O   -0.347939   0.000000
    99  H    0.211312  -0.000000
   100  H    0.211728   0.000000
   101  O   -0.346601   0.000001
   102  H    0.209485   0.000000
   103  H    0.209284   0.000000
   104  O   -0.384572  -0.000000
   105  H    0.192346   0.000000
   106  H    0.192196   0.000000
   107  O   -0.384690  -0.000000
   108  H    0.192165   0.000000
   109  H    0.192555   0.000000
   110  O   -0.350939   0.000002
   111  H    0.205908   0.000000
   112  H    0.205722   0.000000
   113  O   -0.346551  -0.000000
   114  H    0.211810   0.000000
   115  H    0.212007   0.000000
   116  O   -0.388246   0.000012
   117  H    0.194424   0.000001
   118  H    0.165913  -0.000001
 Sum of Mulliken charges =   1.00000   1.00000
 Mulliken charges and spin densities with hydrogens summed into heavy atoms:
               1          2
     1  N   -0.147170   0.842111
     2  C    0.088731   0.001470
     3  C    0.001270   0.046847
     6  C    0.024116   0.006185
    12  C    0.165454  -0.009879
    13  C    0.012160   0.047150
    16  C    0.047231   0.008869
    22  C    0.155031  -0.014950
    23  C    0.002907   0.055731
    26  C    0.063364   0.010028
    32  O   -0.005030   0.001830
    35  O    0.066079   0.002098
    38  O    0.004907  -0.000000
    41  O    0.007722   0.001481
    44  O    0.044071  -0.000007
    47  O   -0.064774   0.000280
    50  O    0.007502  -0.000003
    53  O   -0.064789   0.000048
    56  O   -0.059605   0.000033
    59  O    0.040483   0.000054
    62  O   -0.014152   0.000069
    65  O    0.025736   0.000001
    68  O   -0.011747   0.000095
    71  O    0.048445   0.000411
    74  O    0.078016   0.000000
    77  O   -0.060055   0.000000
    80  O    0.016918   0.000019
    83  O    0.075686   0.000000
    86  O    0.061345   0.000001
    89  O    0.065563   0.000005
    92  O   -0.000015  -0.000000
    95  O    0.067280   0.000002
    98  O    0.075102   0.000000
   101  O    0.072168   0.000002
   104  O   -0.000029   0.000000
   107  O    0.000031   0.000000
   110  O    0.060691   0.000003
   113  O    0.077266   0.000000
   116  O   -0.027908   0.000013
 Electronic spatial extent (au):  <R**2>=          50337.5509
 Charge=              1.0000 electrons
 Dipole moment (field-independent basis, Debye):
    X=              4.5696    Y=              1.0166    Z=              2.9079  Tot=              5.5109
 Quadrupole moment (field-independent basis, Debye-Ang):
   XX=           -148.1033   YY=            -11.2449   ZZ=           -140.5619
   XY=             -4.8398   XZ=             -6.0197   YZ=             -2.2399
 Traceless Quadrupole moment (field-independent basis, Debye-Ang):
   XX=            -48.1333   YY=             88.7251   ZZ=            -40.5919
   XY=             -4.8398   XZ=             -6.0197   YZ=             -2.2399
 Octapole moment (field-independent basis, Debye-Ang**2):
  XXX=            440.6382  YYY=            191.4068  ZZZ=           -376.3000  XYY=             51.9906
  XXY=           -393.8914  XXZ=            182.7698  XZZ=            201.9069  YZZ=           -232.4469
  YYZ=            107.2535  XYZ=            166.4180
 Hexadecapole moment (field-independent basis, Debye-Ang**3):
 XXXX=         -20870.5094 YYYY=          -6529.0465 ZZZZ=          -9905.4072 XXXY=          -2881.9984
 XXXZ=           -101.5020 YYYX=           1821.2005 YYYZ=          -1052.7369 ZZZX=            490.8567
 ZZZY=           -210.9754 XXYY=          -2988.5075 XXZZ=          -4517.8044 YYZZ=          -2427.0564
 XXYZ=            636.1045 YYXZ=            313.8508 ZZXY=           -498.9820
 N-N= 5.626828774221D+03 E-N=-1.741264435962D+04  KE= 2.602335350329D+03
 Leave Link  601 at Tue Mar  3 12:45:48 2026, MaxMem=  1610612736 cpu:               2.6 elap:               1.9
 (Enter /leonardo/prod/opt/applications/g16/c02/binary/g16/l9999.exe)
 Unable to Open any file for archive entry.
 1\1\GINC-LRDN3700\FOpt\UM062X\def2SVP\C9H79N1O29(1+,2)\MORZA000\03-Mar
 -2026\0\\#p opt(addredundant) M062X/def2svp scrf=(cpcm,solvent=water) 
 empiricaldispersion=GD3\\Title Card Required\\1,2\N,-0.1691191764,-0.9
 27922762,0.3858044795\C,-0.0995276231,-0.0359130126,-0.7452453146\C,0.
 858228024,-0.5192365601,-1.843760149\H,0.2738748511,0.926606457,-0.347
 8796313\H,-1.1169970905,0.1091638554,-1.1347164225\C,1.0938545967,0.60
 85259319,-2.8417256677\H,1.8144144289,-0.8342942847,-1.3996428989\H,0.
 4177781248,-1.3976888745,-2.342943711\H,1.7446707149,0.2857433621,-3.6
 6599284\H,0.1432843545,0.9585617909,-3.272205808\H,1.5726573726,1.4594
 271702,-2.3343470514\C,1.0240248808,-1.207103651,1.1517301821\C,1.4990
 839768,-2.6584973763,0.9967102315\H,0.7714253001,-0.9988577025,2.20322
 27437\H,1.7999899763,-0.5002974252,0.826371641\C,2.815049404,-2.856467
 1891,1.7407934913\H,0.7321407891,-3.3514546458,1.3723000882\H,1.662758
 4734,-2.8820476704,-0.0679519204\H,3.0907865485,-3.919954237,1.7352719
 906\H,3.6293834764,-2.3003219865,1.253947453\H,2.7430022708,-2.5245865
 165,2.7881560654\C,-1.435295892,-1.5119422788,0.7495692788\C,-1.803479
 9131,-2.6994485096,-0.1626212061\H,-2.1935058161,-0.7220414908,0.61941
 1869\H,-1.4004239309,-1.8269657771,1.8032544921\C,-3.2497093475,-3.102
 5561532,0.103147757\H,-1.6685226236,-2.4181772453,-1.2191342107\H,-1.1
 235126755,-3.5411830319,0.0416164279\H,-3.5257889739,-3.9834353194,-0.
 4918918258\H,-3.3942204472,-3.3465268803,1.166040719\H,-3.9299545296,-
 2.2804112932,-0.1624401262\O,0.2587794569,3.1663100463,0.7770688237\H,
 -0.6150129418,3.0370632548,0.363309297\H,0.844175031,3.5845227285,0.11
 37951422\O,-0.6274674214,1.0923425139,2.2830461312\H,-0.1032477253,1.8
 743206703,2.0231706612\H,-0.696520396,1.1310663926,3.2451262118\O,-2.3
 132008508,2.1301192884,0.4003569355\H,-1.9903212289,1.6910173364,1.211
 7523855\H,-3.1668177345,2.5628406171,0.6235016216\O,2.60545664,1.53420
 3145,0.2135311902\H,1.8832222519,1.8340945776,0.7845957837\H,2.7276915
 881,2.3213135088,-0.3464415583\O,2.2211878904,4.0408232199,-0.98602657
 1\H,2.7714132348,4.8506110641,-0.8359028899\H,1.9466812163,4.101084861
 5,-1.9099742646\O,-3.4955861279,0.3758631959,-1.4139366851\H,-4.102038
 8188,0.977803601,-1.8782392608\H,-3.0462604769,0.9717326474,-0.7845196
 532\O,6.01504,-1.92951,-0.32826\H,6.28735,-1.02353,-0.50438\H,6.79164,
 -2.40731,-0.0226\O,3.61456,-2.98806,-1.53144\H,4.39453,-2.61162,-1.098
 02\H,3.92791,-3.73228,-2.05227\O,2.85079,-0.29855,5.66204\H,3.30935,0.
 4895,5.35365\H,3.38899,-0.68563,6.35786\O,3.25846,0.07908,-5.588\H,2.9
 0826,0.0447,-6.48278\H,3.98485,-0.54989,-5.54225\O,0.13789,-5.79526,0.
 63573\H,0.01838,-6.45547,1.32428\H,0.40878,-6.26574,-0.15756\O,3.67776
 ,6.30748,-0.70356\H,3.40122,6.89426,0.00708\H,4.63112,6.19875,-0.6308\
 O,-0.80008,-3.10749,-3.72219\H,-1.44098,-2.88007,-4.40218\H,-0.28626,-
 3.84689,-4.05945\O,-1.96649,-2.90193,3.96161\H,-2.70441,-2.52162,4.447
 29\H,-1.52182,-3.50732,4.56226\O,-4.86599,6.00077,0.38933\H,-5.12962,6
 .43983,-0.42494\H,-4.0735,6.44379,0.71039\O,-8.36452,-1.97877,-2.07389
 \H,-7.53562,-1.56497,-2.33457\H,-8.16874,-2.8993,-1.87432\O,-4.83278,3
 .1901,0.56821\H,-4.91806,4.16654,0.57813\H,-5.53012,2.82491,1.15139\O,
 8.17715,-3.4434,0.66474\H,8.06961,-3.69399,1.58825\H,8.36003,-4.24906,
 0.17084\O,4.66671,-5.06928,-3.31905\H,5.32773,-4.76832,-3.94992\H,4.03
 891,-5.61299,-3.80409\O,4.53701,1.85186,4.86079\H,4.2868,2.76597,4.694
 38\H,5.1427,1.59143,4.15918\O,6.72505,3.44631,-3.79441\H,6.01093,3.673
 03,-4.39917\H,6.4013,2.72434,-3.24462\O,-0.18587,-7.78686,2.68685\H,0.
 34413,-7.67955,3.48289\H,-1.0508,-8.10969,2.9599\O,2.83403,7.98084,1.3
 9525\H,2.75865,8.93473,1.29898\H,2.07845,7.68514,1.91311\O,-2.79143,-2
 .52514,-5.69067\H,-2.79421,-1.64312,-6.07556\H,-3.66388,-2.67072,-5.31
 174\O,-1.59794,-0.12754,8.31211\H,-1.21645,0.64338,7.87904\H,-0.89962,
 -0.78747,8.37189\O,-0.96618,8.99378,-1.64175\H,-0.67024,9.62963,-2.299
 76\H,-0.62559,8.13312,-1.90851\O,-7.49974,-4.67841,-1.51755\H,-7.55941
 ,-5.11265,-0.66091\H,-7.31068,-5.36041,-2.16983\O,-6.83859,1.9845,2.21
 651\H,-6.50805,1.52433,2.99452\H,-7.41311,1.36918,1.74938\O,-5.14056,2
 .6708,-2.16419\H,-6.08261,2.74278,-2.33711\H,-5.03043,2.79048,-1.20249
 \\Version=ES64L-G16RevC.02\State=2-A\HF=-2623.503063\S2=0.754912\S2-1=
 0.\S2A=0.750021\RMSD=3.146e-09\RMSF=3.975e-03\Dipole=1.7977956,0.39997
 98,1.1440593\Quadrupole=-35.785781,65.9648505,-30.1790695,-3.599824,-4
 .4754885,-1.6653438\PG=C01 [X(C9H79N1O29)]\\@
 The archive entry for this job was punched.


 SUPPORT THE RIGHT TO ARM BEARS!
 (ADD A CLAWS TO THE BILL OF RIGHTS)
 Job cpu time:       0 days  9 hours 25 minutes 40.2 seconds.
 Elapsed time:       0 days  0 hours 59 minutes 38.3 seconds.
 File lengths (MBytes):  RWF=   1857 Int=      0 D2E=      0 Chk=    108 Scr=      1
 Normal termination of Gaussian 16 at Tue Mar  3 12:46:02 2026.
