 Set GAUSS_PDEF to "12".
 Entering Gaussian System, Link 0=g16
 Initial command:
 /leonardo/prod/opt/applications/g16/c02/binary/g16/l1.exe "/leonardo_scratch/large/userexternal/morza000/g16_35403152/Gau-3318607.inp" -scrdir="/leonardo_scratch/large/userexternal/morza000/g16_35403152/"
 Default is to use a total of  12 processors:
                               12 via shared-memory
                                1 via Linda
 Entering Link 1 = /leonardo/prod/opt/applications/g16/c02/binary/g16/l1.exe PID=   3318613.
  
 Copyright (c) 1988-2021, Gaussian, Inc.  All Rights Reserved.
  
 This is part of the Gaussian(R) 16 program.  It is based on
 the Gaussian(R) 09 system (copyright 2009, Gaussian, Inc.),
 the Gaussian(R) 03 system (copyright 2003, Gaussian, Inc.),
 the Gaussian(R) 98 system (copyright 1998, Gaussian, Inc.),
 the Gaussian(R) 94 system (copyright 1995, Gaussian, Inc.),
 the Gaussian 92(TM) system (copyright 1992, Gaussian, Inc.),
 the Gaussian 90(TM) system (copyright 1990, Gaussian, Inc.),
 the Gaussian 88(TM) system (copyright 1988, Gaussian, Inc.),
 the Gaussian 86(TM) system (copyright 1986, Carnegie Mellon
 University), and the Gaussian 82(TM) system (copyright 1983,
 Carnegie Mellon University). Gaussian is a federally registered
 trademark of Gaussian, Inc.
  
 This software contains proprietary and confidential information,
 including trade secrets, belonging to Gaussian, Inc.
  
 This software is provided under written license and may be
 used, copied, transmitted, or stored only in accord with that
 written license.
  
 The following legend is applicable only to US Government
 contracts under FAR:
  
                    RESTRICTED RIGHTS LEGEND
  
 Use, reproduction and disclosure by the US Government is
 subject to restrictions as set forth in subparagraphs (a)
 and (c) of the Commercial Computer Software - Restricted
 Rights clause in FAR 52.227-19.
  
 Gaussian, Inc.
 340 Quinnipiac St., Bldg. 40, Wallingford CT 06492
  
  
 ---------------------------------------------------------------
 Warning -- This program may not be used in any manner that
 competes with the business of Gaussian, Inc. or will provide
 assistance to any competitor of Gaussian, Inc.  The licensee
 of this program is prohibited from giving any competitor of
 Gaussian, Inc. access to this program.  By using this program,
 the user acknowledges that Gaussian, Inc. is engaged in the
 business of creating and licensing software in the field of
 computational chemistry and represents and warrants to the
 licensee that it is not a competitor of Gaussian, Inc. and that
 it will not use this program in any manner prohibited above.
 ---------------------------------------------------------------
  

 Cite this work as:
 Gaussian 16, Revision C.02,
 M. J. Frisch, G. W. Trucks, H. B. Schlegel, G. E. Scuseria, 
 M. A. Robb, J. R. Cheeseman, G. Scalmani, V. Barone, 
 G. A. Petersson, H. Nakatsuji, X. Li, M. Caricato, A. V. Marenich, 
 J. Bloino, B. G. Janesko, R. Gomperts, B. Mennucci, H. P. Hratchian, 
 J. V. Ortiz, A. F. Izmaylov, J. L. Sonnenberg, D. Williams-Young, 
 F. Ding, F. Lipparini, F. Egidi, J. Goings, B. Peng, A. Petrone, 
 T. Henderson, D. Ranasinghe, V. G. Zakrzewski, J. Gao, N. Rega, 
 G. Zheng, W. Liang, M. Hada, M. Ehara, K. Toyota, R. Fukuda, 
 J. Hasegawa, M. Ishida, T. Nakajima, Y. Honda, O. Kitao, H. Nakai, 
 T. Vreven, K. Throssell, J. A. Montgomery, Jr., J. E. Peralta, 
 F. Ogliaro, M. J. Bearpark, J. J. Heyd, E. N. Brothers, K. N. Kudin, 
 V. N. Staroverov, T. A. Keith, R. Kobayashi, J. Normand, 
 K. Raghavachari, A. P. Rendell, J. C. Burant, S. S. Iyengar, 
 J. Tomasi, M. Cossi, J. M. Millam, M. Klene, C. Adamo, R. Cammi, 
 J. W. Ochterski, R. L. Martin, K. Morokuma, O. Farkas, 
 J. B. Foresman, and D. J. Fox, Gaussian, Inc., Wallingford CT, 2019.
 
 ******************************************
 Gaussian 16:  ES64L-G16RevC.02  7-Dec-2021
                 3-Mar-2026 
 ******************************************
 %nprocshared=12
 Will use up to   12 processors via shared memory.
 %mem=12GB
 ----------------------------------------------------------------------
 #p opt(addredundant) M062X/def2svp scrf=(cpcm,solvent=water) empirical
 dispersion=GD3
 ----------------------------------------------------------------------
 1/18=120,19=15,26=3,38=1/1,3;
 2/9=110,12=2,17=6,18=5,40=1/2;
 3/5=43,7=101,11=2,25=1,30=1,70=2101,71=1,72=1,74=-55,124=31/1,2,3;
 4//1;
 5/5=2,38=5,53=1/2;
 6/7=2,8=2,9=2,10=2,28=1/1;
 7//1,2,3,16;
 1/18=20,19=15,26=3/3(2);
 2/9=110/2;
 99//99;
 2/9=110/2;
 3/5=43,7=101,11=2,25=1,30=1,70=2105,71=1,72=1,74=-55,124=31/1,2,3;
 4/5=5,16=3,69=1/1;
 5/5=2,38=5,53=1/2;
 7//1,2,3,16;
 1/18=20,19=15,26=3/3(-5);
 2/9=110/2;
 6/7=2,8=2,9=2,10=2,19=2,28=1/1;
 99/9=1/99;
 Leave Link    1 at Tue Mar  3 11:37:20 2026, MaxMem=  1610612736 cpu:               0.1 elap:               0.7
 (Enter /leonardo/prod/opt/applications/g16/c02/binary/g16/l101.exe)
 -------------------
 Title Card Required
 -------------------
 Symbolic Z-matrix:
 Charge =  1 Multiplicity = 2
 N                    -0.16833  -0.93058   0.37843 
 C                    -0.1      -0.0386   -0.75268 
 C                     0.85873  -0.52071  -1.85091 
 H                     0.27101   1.05852  -0.28783 
 H                    -1.11772   0.10498  -1.1422 
 C                     1.09351   0.60757  -2.84841 
 H                     1.81507  -0.83473  -1.40641 
 H                     0.41928  -1.39956  -2.35024 
 H                     1.74605   0.28609  -3.67181 
 H                     0.14281   0.95589  -3.28004 
 H                     1.5702    1.45925  -2.34027 
 C                     1.02529  -1.20875   1.1439 
 C                     1.50138  -2.65984   0.98928 
 H                     0.7729   -1.00038   2.19542 
 H                     1.80074  -0.50163   0.81797 
 C                     2.81715  -2.85632   1.73402 
 H                     0.73488  -3.35339   1.36468 
 H                     1.66596  -2.88354  -0.07519 
 H                     3.09424  -3.91944   1.7282 
 H                     3.63105  -2.29909   1.24768 
 H                     2.74417  -2.52477   2.78146 
 C                    -1.43396  -1.51534   0.74277 
 C                    -1.80212  -2.70334  -0.1688 
 H                    -2.1926   -0.72585   0.61249 
 H                    -1.39849  -1.82972   1.79662 
 C                    -3.24934  -3.10378   0.09547 
 H                    -1.66513  -2.42378  -1.22552 
 H                    -1.12359  -3.54569   0.03767 
 H                    -3.52672  -3.98419  -0.49964 
 H                    -3.39541  -3.34737   1.15827 
 H                    -3.92758  -2.28028  -0.17111 
 O                     0.25764   3.16356   0.77105 
 H                    -0.61673   3.03372   0.35859 
 H                     0.84135   3.58349   0.10739 
 O                    -0.62678   1.08965   2.2788 
 H                    -0.10229   1.87132   2.01872 
 H                    -0.69084   1.1253    3.24132 
 O                    -2.31414   2.12823   0.39895 
 H                    -1.99137   1.68904   1.21032 
 H                    -3.16751   2.5615    0.62196 
 O                     2.60425   1.53458   0.20631 
 H                     1.87949   1.83374   0.77456 
 H                     2.72687   2.32137  -0.35392 
 O                     2.21923   4.04251  -0.99107 
 H                     2.77013   4.85144  -0.839 
 H                     1.94758   4.10347  -1.9158 
 O                    -3.50061   0.37163  -1.41076 
 H                    -4.10399   0.97501  -1.87719 
 H                    -3.04848   0.96773  -0.78361 
 O                     6.01504  -1.92951  -0.32826 
 H                     6.28735  -1.02353  -0.50438 
 H                     6.79164  -2.40731  -0.0226 
 O                     3.61456  -2.98806  -1.53144 
 H                     4.39453  -2.61162  -1.09802 
 H                     3.92791  -3.73228  -2.05227 
 O                     2.85079  -0.29855   5.66204 
 H                     3.30935   0.4895    5.35365 
 H                     3.38899  -0.68563   6.35786 
 O                     3.25846   0.07908  -5.588 
 H                     2.90826   0.0447   -6.48278 
 H                     3.98485  -0.54989  -5.54225 
 O                     0.13789  -5.79526   0.63573 
 H                     0.01838  -6.45547   1.32428 
 H                     0.40878  -6.26574  -0.15756 
 O                     3.67776   6.30748  -0.70356 
 H                     3.40122   6.89426   0.00708 
 H                     4.63112   6.19875  -0.6308 
 O                    -0.80008  -3.10749  -3.72219 
 H                    -1.44098  -2.88007  -4.40218 
 H                    -0.28626  -3.84689  -4.05945 
 O                    -1.96649  -2.90193   3.96161 
 H                    -2.70441  -2.52162   4.44729 
 H                    -1.52182  -3.50732   4.56226 
 O                    -4.86599   6.00077   0.38933 
 H                    -5.12962   6.43983  -0.42494 
 H                    -4.0735    6.44379   0.71039 
 O                    -8.36452  -1.97877  -2.07389 
 H                    -7.53562  -1.56497  -2.33457 
 H                    -8.16874  -2.8993   -1.87432 
 O                    -4.83278   3.1901    0.56821 
 H                    -4.91806   4.16654   0.57813 
 H                    -5.53012   2.82491   1.15139 
 O                     8.17715  -3.4434    0.66474 
 H                     8.06961  -3.69399   1.58825 
 H                     8.36003  -4.24906   0.17084 
 O                     4.66671  -5.06928  -3.31905 
 H                     5.32773  -4.76832  -3.94992 
 H                     4.03891  -5.61299  -3.80409 
 O                     4.53701   1.85186   4.86079 
 H                     4.2868    2.76597   4.69438 
 H                     5.1427    1.59143   4.15918 
 O                     6.72505   3.44631  -3.79441 
 H                     6.01093   3.67303  -4.39917 
 H                     6.4013    2.72434  -3.24462 
 O                    -0.18587  -7.78686   2.68685 
 H                     0.34413  -7.67955   3.48289 
 H                    -1.0508   -8.10969   2.9599 
 O                     2.83403   7.98084   1.39525 
 H                     2.75865   8.93473   1.29898 
 H                     2.07845   7.68514   1.91311 
 O                    -2.79143  -2.52514  -5.69067 
 H                    -2.79421  -1.64312  -6.07556 
 H                    -3.66388  -2.67072  -5.31174 
 O                    -1.59794  -0.12754   8.31211 
 H                    -1.21645   0.64338   7.87904 
 H                    -0.89962  -0.78747   8.37189 
 O                    -0.96618   8.99378  -1.64175 
 H                    -0.67024   9.62963  -2.29976 
 H                    -0.62559   8.13312  -1.90851 
 O                    -7.49974  -4.67841  -1.51755 
 H                    -7.55941  -5.11265  -0.66091 
 H                    -7.31068  -5.36041  -2.16983 
 O                    -6.83859   1.9845    2.21651 
 H                    -6.50805   1.52433   2.99452 
 H                    -7.41311   1.36918   1.74938 
 O                    -5.14056   2.6708   -2.16419 
 H                    -6.08261   2.74278  -2.33711 
 H                    -5.03043   2.79048  -1.20249 
 
 Add virtual bond connecting atoms O65        and H45        Dist= 3.25D+00.
 Add virtual bond connecting atoms O80        and H40        Dist= 3.37D+00.
 Add virtual bond connecting atoms H49        and O38        Dist= 3.42D+00.
 Add virtual bond connecting atoms O44        and H34        Dist= 3.44D+00.
 Add virtual bond connecting atoms H118       and O80        Dist= 3.45D+00.
 Add virtual bond connecting atoms H36        and O32        Dist= 3.46D+00.
 Add virtual bond connecting atoms O38        and H33        Dist= 3.64D+00.
 Add virtual bond connecting atoms H39        and O35        Dist= 3.47D+00.
 Add virtual bond connecting atoms H81        and O74        Dist= 3.49D+00.
 Add virtual bond connecting atoms O98        and H66        Dist= 3.50D+00.
 Add virtual bond connecting atoms O83        and H52        Dist= 3.52D+00.
 Add virtual bond connecting atoms O113       and H82        Dist= 3.56D+00.
 Add virtual bond connecting atoms O89        and H57        Dist= 3.59D+00.
 Add virtual bond connecting atoms O101       and H69        Dist= 3.59D+00.
 Add virtual bond connecting atoms O44        and H43        Dist= 3.60D+00.
 Add virtual bond connecting atoms O95        and H63        Dist= 3.62D+00.
 Add virtual bond connecting atoms H54        and O50        Dist= 3.63D+00.
 Add virtual bond connecting atoms O110       and H79        Dist= 3.65D+00.
 Add virtual bond connecting atoms O86        and H55        Dist= 3.75D+00.
 Add virtual bond connecting atoms H42        and H4         Dist= 3.93D+00.
 Add virtual bond connecting atoms H49        and H5         Dist= 4.05D+00.
 Add virtual bond connecting atoms O53        and H18        Dist= 4.60D+00.
 Add virtual bond connecting atoms H54        and H20        Dist= 4.70D+00.
 Add virtual bond connecting atoms O59        and H9         Dist= 4.63D+00.
 Add virtual bond connecting atoms O71        and H25        Dist= 4.69D+00.
 Add virtual bond connecting atoms O68        and H8         Dist= 4.74D+00.
 Add virtual bond connecting atoms O62        and H17        Dist= 4.95D+00.
 Add virtual bond connecting atoms O62        and H28        Dist= 5.00D+00.
 Add virtual bond connecting atoms O56        and H21        Dist= 6.88D+00.
 Add virtual bond connecting atoms H78        and H31        Dist= 8.06D+00.
 Add virtual bond connecting atoms H78        and H48        Dist= 8.11D+00.
 Add virtual bond connecting atoms O110       and H29        Dist= 7.86D+00.
 Add virtual bond connecting atoms H111       and H29        Dist= 7.92D+00.
 Add virtual bond connecting atoms O107       and H76        Dist= 8.80D+00.
 Add virtual bond connecting atoms O107       and H99        Dist= 8.97D+00.
 Add virtual bond connecting atoms H109       and H46        Dist= 9.04D+00.
 Add virtual bond connecting atoms H109       and H66        Dist= 8.75D+00.
 Add virtual bond connecting atoms H109       and H76        Dist= 8.78D+00.
 Add virtual bond connecting atoms O92        and H67        Dist= 8.86D+00.
 Add virtual bond connecting atoms H93        and H46        Dist= 9.04D+00.
 Add virtual bond connecting atoms H93        and O59        Dist= 8.84D+00.
 Add virtual bond connecting atoms H93        and H67        Dist= 8.96D+00.
 Add virtual bond connecting atoms H94        and H43        Dist= 8.87D+00.
 Add virtual bond connecting atoms O104       and H72        Dist= 8.84D+00.
 Add virtual bond connecting atoms H105       and H37        Dist= 8.87D+00.
 Add virtual bond connecting atoms H105       and O56        Dist= 8.93D+00.
 Add virtual bond connecting atoms H106       and O56        Dist= 8.79D+00.
 Add virtual bond connecting atoms H106       and H58        Dist= 8.96D+00.
 The following ModRedundant input section has been read:
 B       4      32 F                                                           
 X      50 F                                                                   
 X      51 F                                                                   
 X      52 F                                                                   
 X      53 F                                                                   
 X      54 F                                                                   
 X      55 F                                                                   
 X      56 F                                                                   
 X      57 F                                                                   
 X      58 F                                                                   
 X      59 F                                                                   
 X      60 F                                                                   
 X      61 F                                                                   
 X      62 F                                                                   
 X      63 F                                                                   
 X      64 F                                                                   
 X      65 F                                                                   
 X      66 F                                                                   
 X      67 F                                                                   
 X      68 F                                                                   
 X      69 F                                                                   
 X      70 F                                                                   
 X      71 F                                                                   
 X      72 F                                                                   
 X      73 F                                                                   
 X      74 F                                                                   
 X      75 F                                                                   
 X      76 F                                                                   
 X      77 F                                                                   
 X      78 F                                                                   
 X      79 F                                                                   
 X      80 F                                                                   
 X      81 F                                                                   
 X      82 F                                                                   
 X      83 F                                                                   
 X      84 F                                                                   
 X      85 F                                                                   
 X      86 F                                                                   
 X      87 F                                                                   
 X      88 F                                                                   
 X      89 F                                                                   
 X      90 F                                                                   
 X      91 F                                                                   
 X      92 F                                                                   
 X      93 F                                                                   
 X      94 F                                                                   
 X      95 F                                                                   
 X      96 F                                                                   
 X      97 F                                                                   
 X      98 F                                                                   
 X      99 F                                                                   
 X     100 F                                                                   
 X     101 F                                                                   
 X     102 F                                                                   
 X     103 F                                                                   
 X     104 F                                                                   
 X     105 F                                                                   
 X     106 F                                                                   
 X     107 F                                                                   
 X     108 F                                                                   
 X     109 F                                                                   
 X     110 F                                                                   
 X     111 F                                                                   
 X     112 F                                                                   
 X     113 F                                                                   
 X     114 F                                                                   
 X     115 F                                                                   
 X     116 F                                                                   
 X     117 F                                                                   
 X     118 F                                                                   
 
 ITRead=  0  0  0  0  0  0  0  0  0  0  0  0  0  0  0  0  0  0  0  0
 ITRead=  0  0  0  0  0  0  0  0  0  0  0  0  0  0  0  0  0  0  0  0
 ITRead=  0  0  0  0  0  0  0  0  0  0  0  0  0  0  0  0  0  0  0  0
 ITRead=  0  0  0  0  0  0  0  0  0  0  0  0  0  0  0  0  0  0  0  0
 ITRead=  0  0  0  0  0  0  0  0  0  0  0  0  0  0  0  0  0  0  0  0
 ITRead=  0  0  0  0  0  0  0  0  0  0  0  0  0  0  0  0  0  0
 MicOpt= -1 -1 -1 -1 -1 -1 -1 -1 -1 -1 -1 -1 -1 -1 -1 -1 -1 -1 -1 -1
 MicOpt= -1 -1 -1 -1 -1 -1 -1 -1 -1 -1 -1 -1 -1 -1 -1 -1 -1 -1 -1 -1
 MicOpt= -1 -1 -1 -1 -1 -1 -1 -1 -1 -1 -1 -1 -1 -1 -1 -1 -1 -1 -1 -1
 MicOpt= -1 -1 -1 -1 -1 -1 -1 -1 -1 -1 -1 -1 -1 -1 -1 -1 -1 -1 -1 -1
 MicOpt= -1 -1 -1 -1 -1 -1 -1 -1 -1 -1 -1 -1 -1 -1 -1 -1 -1 -1 -1 -1
 MicOpt= -1 -1 -1 -1 -1 -1 -1 -1 -1 -1 -1 -1 -1 -1 -1 -1 -1 -1
 NAtoms=    118 NQM=      118 NQMF=       0 NMMI=      0 NMMIF=      0
                NMic=       0 NMicF=      0.
                    Isotopes and Nuclear Properties:
 (Nuclear quadrupole moments (NQMom) in fm**2, nuclear magnetic moments (NMagM)
  in nuclear magnetons)

  Atom         1           2           3           4           5           6           7           8           9          10
 IAtWgt=          14          12          12           1           1          12           1           1           1           1
 AtmWgt=  14.0030740  12.0000000  12.0000000   1.0078250   1.0078250  12.0000000   1.0078250   1.0078250   1.0078250   1.0078250
 NucSpn=           2           0           0           1           1           0           1           1           1           1
 AtZEff=  -0.0000000  -0.0000000  -0.0000000  -0.0000000  -0.0000000  -0.0000000  -0.0000000  -0.0000000  -0.0000000  -0.0000000
 NQMom=    2.0440000   0.0000000   0.0000000   0.0000000   0.0000000   0.0000000   0.0000000   0.0000000   0.0000000   0.0000000
 NMagM=    0.4037610   0.0000000   0.0000000   2.7928460   2.7928460   0.0000000   2.7928460   2.7928460   2.7928460   2.7928460
 AtZNuc=   7.0000000   6.0000000   6.0000000   1.0000000   1.0000000   6.0000000   1.0000000   1.0000000   1.0000000   1.0000000

  Atom        11          12          13          14          15          16          17          18          19          20
 IAtWgt=           1          12          12           1           1          12           1           1           1           1
 AtmWgt=   1.0078250  12.0000000  12.0000000   1.0078250   1.0078250  12.0000000   1.0078250   1.0078250   1.0078250   1.0078250
 NucSpn=           1           0           0           1           1           0           1           1           1           1
 AtZEff=  -0.0000000  -0.0000000  -0.0000000  -0.0000000  -0.0000000  -0.0000000  -0.0000000  -0.0000000  -0.0000000  -0.0000000
 NQMom=    0.0000000   0.0000000   0.0000000   0.0000000   0.0000000   0.0000000   0.0000000   0.0000000   0.0000000   0.0000000
 NMagM=    2.7928460   0.0000000   0.0000000   2.7928460   2.7928460   0.0000000   2.7928460   2.7928460   2.7928460   2.7928460
 AtZNuc=   1.0000000   6.0000000   6.0000000   1.0000000   1.0000000   6.0000000   1.0000000   1.0000000   1.0000000   1.0000000

  Atom        21          22          23          24          25          26          27          28          29          30
 IAtWgt=           1          12          12           1           1          12           1           1           1           1
 AtmWgt=   1.0078250  12.0000000  12.0000000   1.0078250   1.0078250  12.0000000   1.0078250   1.0078250   1.0078250   1.0078250
 NucSpn=           1           0           0           1           1           0           1           1           1           1
 AtZEff=  -0.0000000  -0.0000000  -0.0000000  -0.0000000  -0.0000000  -0.0000000  -0.0000000  -0.0000000  -0.0000000  -0.0000000
 NQMom=    0.0000000   0.0000000   0.0000000   0.0000000   0.0000000   0.0000000   0.0000000   0.0000000   0.0000000   0.0000000
 NMagM=    2.7928460   0.0000000   0.0000000   2.7928460   2.7928460   0.0000000   2.7928460   2.7928460   2.7928460   2.7928460
 AtZNuc=   1.0000000   6.0000000   6.0000000   1.0000000   1.0000000   6.0000000   1.0000000   1.0000000   1.0000000   1.0000000

  Atom        31          32          33          34          35          36          37          38          39          40
 IAtWgt=           1          16           1           1          16           1           1          16           1           1
 AtmWgt=   1.0078250  15.9949146   1.0078250   1.0078250  15.9949146   1.0078250   1.0078250  15.9949146   1.0078250   1.0078250
 NucSpn=           1           0           1           1           0           1           1           0           1           1
 AtZEff=  -0.0000000  -0.0000000  -0.0000000  -0.0000000  -0.0000000  -0.0000000  -0.0000000  -0.0000000  -0.0000000  -0.0000000
 NQMom=    0.0000000   0.0000000   0.0000000   0.0000000   0.0000000   0.0000000   0.0000000   0.0000000   0.0000000   0.0000000
 NMagM=    2.7928460   0.0000000   2.7928460   2.7928460   0.0000000   2.7928460   2.7928460   0.0000000   2.7928460   2.7928460
 AtZNuc=   1.0000000   8.0000000   1.0000000   1.0000000   8.0000000   1.0000000   1.0000000   8.0000000   1.0000000   1.0000000

  Atom        41          42          43          44          45          46          47          48          49          50
 IAtWgt=          16           1           1          16           1           1          16           1           1          16
 AtmWgt=  15.9949146   1.0078250   1.0078250  15.9949146   1.0078250   1.0078250  15.9949146   1.0078250   1.0078250  15.9949146
 NucSpn=           0           1           1           0           1           1           0           1           1           0
 AtZEff=  -0.0000000  -0.0000000  -0.0000000  -0.0000000  -0.0000000  -0.0000000  -0.0000000  -0.0000000  -0.0000000  -0.0000000
 NQMom=    0.0000000   0.0000000   0.0000000   0.0000000   0.0000000   0.0000000   0.0000000   0.0000000   0.0000000   0.0000000
 NMagM=    0.0000000   2.7928460   2.7928460   0.0000000   2.7928460   2.7928460   0.0000000   2.7928460   2.7928460   0.0000000
 AtZNuc=   8.0000000   1.0000000   1.0000000   8.0000000   1.0000000   1.0000000   8.0000000   1.0000000   1.0000000   8.0000000

  Atom        51          52          53          54          55          56          57          58          59          60
 IAtWgt=           1           1          16           1           1          16           1           1          16           1
 AtmWgt=   1.0078250   1.0078250  15.9949146   1.0078250   1.0078250  15.9949146   1.0078250   1.0078250  15.9949146   1.0078250
 NucSpn=           1           1           0           1           1           0           1           1           0           1
 AtZEff=  -0.0000000  -0.0000000  -0.0000000  -0.0000000  -0.0000000  -0.0000000  -0.0000000  -0.0000000  -0.0000000  -0.0000000
 NQMom=    0.0000000   0.0000000   0.0000000   0.0000000   0.0000000   0.0000000   0.0000000   0.0000000   0.0000000   0.0000000
 NMagM=    2.7928460   2.7928460   0.0000000   2.7928460   2.7928460   0.0000000   2.7928460   2.7928460   0.0000000   2.7928460
 AtZNuc=   1.0000000   1.0000000   8.0000000   1.0000000   1.0000000   8.0000000   1.0000000   1.0000000   8.0000000   1.0000000

  Atom        61          62          63          64          65          66          67          68          69          70
 IAtWgt=           1          16           1           1          16           1           1          16           1           1
 AtmWgt=   1.0078250  15.9949146   1.0078250   1.0078250  15.9949146   1.0078250   1.0078250  15.9949146   1.0078250   1.0078250
 NucSpn=           1           0           1           1           0           1           1           0           1           1
 AtZEff=  -0.0000000  -0.0000000  -0.0000000  -0.0000000  -0.0000000  -0.0000000  -0.0000000  -0.0000000  -0.0000000  -0.0000000
 NQMom=    0.0000000   0.0000000   0.0000000   0.0000000   0.0000000   0.0000000   0.0000000   0.0000000   0.0000000   0.0000000
 NMagM=    2.7928460   0.0000000   2.7928460   2.7928460   0.0000000   2.7928460   2.7928460   0.0000000   2.7928460   2.7928460
 AtZNuc=   1.0000000   8.0000000   1.0000000   1.0000000   8.0000000   1.0000000   1.0000000   8.0000000   1.0000000   1.0000000

  Atom        71          72          73          74          75          76          77          78          79          80
 IAtWgt=          16           1           1          16           1           1          16           1           1          16
 AtmWgt=  15.9949146   1.0078250   1.0078250  15.9949146   1.0078250   1.0078250  15.9949146   1.0078250   1.0078250  15.9949146
 NucSpn=           0           1           1           0           1           1           0           1           1           0
 AtZEff=  -0.0000000  -0.0000000  -0.0000000  -0.0000000  -0.0000000  -0.0000000  -0.0000000  -0.0000000  -0.0000000  -0.0000000
 NQMom=    0.0000000   0.0000000   0.0000000   0.0000000   0.0000000   0.0000000   0.0000000   0.0000000   0.0000000   0.0000000
 NMagM=    0.0000000   2.7928460   2.7928460   0.0000000   2.7928460   2.7928460   0.0000000   2.7928460   2.7928460   0.0000000
 AtZNuc=   8.0000000   1.0000000   1.0000000   8.0000000   1.0000000   1.0000000   8.0000000   1.0000000   1.0000000   8.0000000

  Atom        81          82          83          84          85          86          87          88          89          90
 IAtWgt=           1           1          16           1           1          16           1           1          16           1
 AtmWgt=   1.0078250   1.0078250  15.9949146   1.0078250   1.0078250  15.9949146   1.0078250   1.0078250  15.9949146   1.0078250
 NucSpn=           1           1           0           1           1           0           1           1           0           1
 AtZEff=  -0.0000000  -0.0000000  -0.0000000  -0.0000000  -0.0000000  -0.0000000  -0.0000000  -0.0000000  -0.0000000  -0.0000000
 NQMom=    0.0000000   0.0000000   0.0000000   0.0000000   0.0000000   0.0000000   0.0000000   0.0000000   0.0000000   0.0000000
 NMagM=    2.7928460   2.7928460   0.0000000   2.7928460   2.7928460   0.0000000   2.7928460   2.7928460   0.0000000   2.7928460
 AtZNuc=   1.0000000   1.0000000   8.0000000   1.0000000   1.0000000   8.0000000   1.0000000   1.0000000   8.0000000   1.0000000

  Atom        91          92          93          94          95          96          97          98          99         100
 IAtWgt=           1          16           1           1          16           1           1          16           1           1
 AtmWgt=   1.0078250  15.9949146   1.0078250   1.0078250  15.9949146   1.0078250   1.0078250  15.9949146   1.0078250   1.0078250
 NucSpn=           1           0           1           1           0           1           1           0           1           1
 AtZEff=  -0.0000000  -0.0000000  -0.0000000  -0.0000000  -0.0000000  -0.0000000  -0.0000000  -0.0000000  -0.0000000  -0.0000000
 NQMom=    0.0000000   0.0000000   0.0000000   0.0000000   0.0000000   0.0000000   0.0000000   0.0000000   0.0000000   0.0000000
 NMagM=    2.7928460   0.0000000   2.7928460   2.7928460   0.0000000   2.7928460   2.7928460   0.0000000   2.7928460   2.7928460
 AtZNuc=   1.0000000   8.0000000   1.0000000   1.0000000   8.0000000   1.0000000   1.0000000   8.0000000   1.0000000   1.0000000

  Atom       101         102         103         104         105         106         107         108         109         110
 IAtWgt=          16           1           1          16           1           1          16           1           1          16
 AtmWgt=  15.9949146   1.0078250   1.0078250  15.9949146   1.0078250   1.0078250  15.9949146   1.0078250   1.0078250  15.9949146
 NucSpn=           0           1           1           0           1           1           0           1           1           0
 AtZEff=  -0.0000000  -0.0000000  -0.0000000  -0.0000000  -0.0000000  -0.0000000  -0.0000000  -0.0000000  -0.0000000  -0.0000000
 NQMom=    0.0000000   0.0000000   0.0000000   0.0000000   0.0000000   0.0000000   0.0000000   0.0000000   0.0000000   0.0000000
 NMagM=    0.0000000   2.7928460   2.7928460   0.0000000   2.7928460   2.7928460   0.0000000   2.7928460   2.7928460   0.0000000
 AtZNuc=   8.0000000   1.0000000   1.0000000   8.0000000   1.0000000   1.0000000   8.0000000   1.0000000   1.0000000   8.0000000

  Atom       111         112         113         114         115         116         117         118
 IAtWgt=           1           1          16           1           1          16           1           1
 AtmWgt=   1.0078250   1.0078250  15.9949146   1.0078250   1.0078250  15.9949146   1.0078250   1.0078250
 NucSpn=           1           1           0           1           1           0           1           1
 AtZEff=  -0.0000000  -0.0000000  -0.0000000  -0.0000000  -0.0000000  -0.0000000  -0.0000000  -0.0000000
 NQMom=    0.0000000   0.0000000   0.0000000   0.0000000   0.0000000   0.0000000   0.0000000   0.0000000
 NMagM=    2.7928460   2.7928460   0.0000000   2.7928460   2.7928460   0.0000000   2.7928460   2.7928460
 AtZNuc=   1.0000000   1.0000000   8.0000000   1.0000000   1.0000000   8.0000000   1.0000000   1.0000000
 Leave Link  101 at Tue Mar  3 11:37:20 2026, MaxMem=  1610612736 cpu:               0.4 elap:               0.4
 (Enter /leonardo/prod/opt/applications/g16/c02/binary/g16/l103.exe)

 GradGradGradGradGradGradGradGradGradGradGradGradGradGradGradGradGradGrad
 Berny optimization.
 Initialization pass.
                           ----------------------------
                           !    Initial Parameters    !
                           ! (Angstroms and Degrees)  !
 --------------------------                            --------------------------
 ! Name  Definition              Value          Derivative Info.                !
 --------------------------------------------------------------------------------
 ! X50   R(50,-1)                6.015          Frozen                          !
 ! Y50   R(50,-2)               -1.9295         Frozen                          !
 ! Z50   R(50,-3)               -0.3283         Frozen                          !
 ! X51   R(51,-1)                6.2873         Frozen                          !
 ! Y51   R(51,-2)               -1.0235         Frozen                          !
 ! Z51   R(51,-3)               -0.5044         Frozen                          !
 ! X52   R(52,-1)                6.7916         Frozen                          !
 ! Y52   R(52,-2)               -2.4073         Frozen                          !
 ! Z52   R(52,-3)               -0.0226         Frozen                          !
 ! X53   R(53,-1)                3.6146         Frozen                          !
 ! Y53   R(53,-2)               -2.9881         Frozen                          !
 ! Z53   R(53,-3)               -1.5314         Frozen                          !
 ! X54   R(54,-1)                4.3945         Frozen                          !
 ! Y54   R(54,-2)               -2.6116         Frozen                          !
 ! Z54   R(54,-3)               -1.098          Frozen                          !
 ! X55   R(55,-1)                3.9279         Frozen                          !
 ! Y55   R(55,-2)               -3.7323         Frozen                          !
 ! Z55   R(55,-3)               -2.0523         Frozen                          !
 ! X56   R(56,-1)                2.8508         Frozen                          !
 ! Y56   R(56,-2)               -0.2986         Frozen                          !
 ! Z56   R(56,-3)                5.662          Frozen                          !
 ! X57   R(57,-1)                3.3094         Frozen                          !
 ! Y57   R(57,-2)                0.4895         Frozen                          !
 ! Z57   R(57,-3)                5.3537         Frozen                          !
 ! X58   R(58,-1)                3.389          Frozen                          !
 ! Y58   R(58,-2)               -0.6856         Frozen                          !
 ! Z58   R(58,-3)                6.3579         Frozen                          !
 ! X59   R(59,-1)                3.2585         Frozen                          !
 ! Y59   R(59,-2)                0.0791         Frozen                          !
 ! Z59   R(59,-3)               -5.588          Frozen                          !
 ! X60   R(60,-1)                2.9083         Frozen                          !
 ! Y60   R(60,-2)                0.0447         Frozen                          !
 ! Z60   R(60,-3)               -6.4828         Frozen                          !
 ! X61   R(61,-1)                3.9848         Frozen                          !
 ! Y61   R(61,-2)               -0.5499         Frozen                          !
 ! Z61   R(61,-3)               -5.5423         Frozen                          !
 ! X62   R(62,-1)                0.1379         Frozen                          !
 ! Y62   R(62,-2)               -5.7953         Frozen                          !
 ! Z62   R(62,-3)                0.6357         Frozen                          !
 ! X63   R(63,-1)                0.0184         Frozen                          !
 ! Y63   R(63,-2)               -6.4555         Frozen                          !
 ! Z63   R(63,-3)                1.3243         Frozen                          !
 ! X64   R(64,-1)                0.4088         Frozen                          !
 ! Y64   R(64,-2)               -6.2657         Frozen                          !
 ! Z64   R(64,-3)               -0.1576         Frozen                          !
 ! X65   R(65,-1)                3.6778         Frozen                          !
 ! Y65   R(65,-2)                6.3075         Frozen                          !
 ! Z65   R(65,-3)               -0.7036         Frozen                          !
 ! X66   R(66,-1)                3.4012         Frozen                          !
 ! Y66   R(66,-2)                6.8943         Frozen                          !
 ! Z66   R(66,-3)                0.0071         Frozen                          !
 ! X67   R(67,-1)                4.6311         Frozen                          !
 ! Y67   R(67,-2)                6.1987         Frozen                          !
 ! Z67   R(67,-3)               -0.6308         Frozen                          !
 ! X68   R(68,-1)               -0.8001         Frozen                          !
 ! Y68   R(68,-2)               -3.1075         Frozen                          !
 ! Z68   R(68,-3)               -3.7222         Frozen                          !
 ! X69   R(69,-1)               -1.441          Frozen                          !
 ! Y69   R(69,-2)               -2.8801         Frozen                          !
 ! Z69   R(69,-3)               -4.4022         Frozen                          !
 ! X70   R(70,-1)               -0.2863         Frozen                          !
 ! Y70   R(70,-2)               -3.8469         Frozen                          !
 ! Z70   R(70,-3)               -4.0595         Frozen                          !
 ! X71   R(71,-1)               -1.9665         Frozen                          !
 ! Y71   R(71,-2)               -2.9019         Frozen                          !
 ! Z71   R(71,-3)                3.9616         Frozen                          !
 ! X72   R(72,-1)               -2.7044         Frozen                          !
 ! Y72   R(72,-2)               -2.5216         Frozen                          !
 ! Z72   R(72,-3)                4.4473         Frozen                          !
 ! X73   R(73,-1)               -1.5218         Frozen                          !
 ! Y73   R(73,-2)               -3.5073         Frozen                          !
 ! Z73   R(73,-3)                4.5623         Frozen                          !
 ! X74   R(74,-1)               -4.866          Frozen                          !
 ! Y74   R(74,-2)                6.0008         Frozen                          !
 ! Z74   R(74,-3)                0.3893         Frozen                          !
 ! X75   R(75,-1)               -5.1296         Frozen                          !
 ! Y75   R(75,-2)                6.4398         Frozen                          !
 ! Z75   R(75,-3)               -0.4249         Frozen                          !
 ! X76   R(76,-1)               -4.0735         Frozen                          !
 ! Y76   R(76,-2)                6.4438         Frozen                          !
 ! Z76   R(76,-3)                0.7104         Frozen                          !
 ! X77   R(77,-1)               -8.3645         Frozen                          !
 ! Y77   R(77,-2)               -1.9788         Frozen                          !
 ! Z77   R(77,-3)               -2.0739         Frozen                          !
 ! X78   R(78,-1)               -7.5356         Frozen                          !
 ! Y78   R(78,-2)               -1.565          Frozen                          !
 ! Z78   R(78,-3)               -2.3346         Frozen                          !
 ! X79   R(79,-1)               -8.1687         Frozen                          !
 ! Y79   R(79,-2)               -2.8993         Frozen                          !
 ! Z79   R(79,-3)               -1.8743         Frozen                          !
 ! X80   R(80,-1)               -4.8328         Frozen                          !
 ! Y80   R(80,-2)                3.1901         Frozen                          !
 ! Z80   R(80,-3)                0.5682         Frozen                          !
 ! X81   R(81,-1)               -4.9181         Frozen                          !
 ! Y81   R(81,-2)                4.1665         Frozen                          !
 ! Z81   R(81,-3)                0.5781         Frozen                          !
 ! X82   R(82,-1)               -5.5301         Frozen                          !
 ! Y82   R(82,-2)                2.8249         Frozen                          !
 ! Z82   R(82,-3)                1.1514         Frozen                          !
 ! X83   R(83,-1)                8.1771         Frozen                          !
 ! Y83   R(83,-2)               -3.4434         Frozen                          !
 ! Z83   R(83,-3)                0.6647         Frozen                          !
 ! X84   R(84,-1)                8.0696         Frozen                          !
 ! Y84   R(84,-2)               -3.694          Frozen                          !
 ! Z84   R(84,-3)                1.5883         Frozen                          !
 ! X85   R(85,-1)                8.36           Frozen                          !
 ! Y85   R(85,-2)               -4.2491         Frozen                          !
 ! Z85   R(85,-3)                0.1708         Frozen                          !
 ! X86   R(86,-1)                4.6667         Frozen                          !
 ! Y86   R(86,-2)               -5.0693         Frozen                          !
 ! Z86   R(86,-3)               -3.319          Frozen                          !
 ! X87   R(87,-1)                5.3277         Frozen                          !
 ! Y87   R(87,-2)               -4.7683         Frozen                          !
 ! Z87   R(87,-3)               -3.9499         Frozen                          !
 ! X88   R(88,-1)                4.0389         Frozen                          !
 ! Y88   R(88,-2)               -5.613          Frozen                          !
 ! Z88   R(88,-3)               -3.8041         Frozen                          !
 ! X89   R(89,-1)                4.537          Frozen                          !
 ! Y89   R(89,-2)                1.8519         Frozen                          !
 ! Z89   R(89,-3)                4.8608         Frozen                          !
 ! X90   R(90,-1)                4.2868         Frozen                          !
 ! Y90   R(90,-2)                2.766          Frozen                          !
 ! Z90   R(90,-3)                4.6944         Frozen                          !
 ! X91   R(91,-1)                5.1427         Frozen                          !
 ! Y91   R(91,-2)                1.5914         Frozen                          !
 ! Z91   R(91,-3)                4.1592         Frozen                          !
 ! X92   R(92,-1)                6.7251         Frozen                          !
 ! Y92   R(92,-2)                3.4463         Frozen                          !
 ! Z92   R(92,-3)               -3.7944         Frozen                          !
 ! X93   R(93,-1)                6.0109         Frozen                          !
 ! Y93   R(93,-2)                3.673          Frozen                          !
 ! Z93   R(93,-3)               -4.3992         Frozen                          !
 ! X94   R(94,-1)                6.4013         Frozen                          !
 ! Y94   R(94,-2)                2.7243         Frozen                          !
 ! Z94   R(94,-3)               -3.2446         Frozen                          !
 ! X95   R(95,-1)               -0.1859         Frozen                          !
 ! Y95   R(95,-2)               -7.7869         Frozen                          !
 ! Z95   R(95,-3)                2.6869         Frozen                          !
 ! X96   R(96,-1)                0.3441         Frozen                          !
 ! Y96   R(96,-2)               -7.6795         Frozen                          !
 ! Z96   R(96,-3)                3.4829         Frozen                          !
 ! X97   R(97,-1)               -1.0508         Frozen                          !
 ! Y97   R(97,-2)               -8.1097         Frozen                          !
 ! Z97   R(97,-3)                2.9599         Frozen                          !
 ! X98   R(98,-1)                2.834          Frozen                          !
 ! Y98   R(98,-2)                7.9808         Frozen                          !
 ! Z98   R(98,-3)                1.3952         Frozen                          !
 ! X99   R(99,-1)                2.7586         Frozen                          !
 ! Y99   R(99,-2)                8.9347         Frozen                          !
 ! Z99   R(99,-3)                1.299          Frozen                          !
 ! X100  R(100,-1)               2.0785         Frozen                          !
 ! Y100  R(100,-2)               7.6851         Frozen                          !
 ! Z100  R(100,-3)               1.9131         Frozen                          !
 ! X101  R(101,-1)              -2.7914         Frozen                          !
 ! Y101  R(101,-2)              -2.5251         Frozen                          !
 ! Z101  R(101,-3)              -5.6907         Frozen                          !
 ! X102  R(102,-1)              -2.7942         Frozen                          !
 ! Y102  R(102,-2)              -1.6431         Frozen                          !
 ! Z102  R(102,-3)              -6.0756         Frozen                          !
 ! X103  R(103,-1)              -3.6639         Frozen                          !
 ! Y103  R(103,-2)              -2.6707         Frozen                          !
 ! Z103  R(103,-3)              -5.3117         Frozen                          !
 ! X104  R(104,-1)              -1.5979         Frozen                          !
 ! Y104  R(104,-2)              -0.1275         Frozen                          !
 ! Z104  R(104,-3)               8.3121         Frozen                          !
 ! X105  R(105,-1)              -1.2165         Frozen                          !
 ! Y105  R(105,-2)               0.6434         Frozen                          !
 ! Z105  R(105,-3)               7.879          Frozen                          !
 ! X106  R(106,-1)              -0.8996         Frozen                          !
 ! Y106  R(106,-2)              -0.7875         Frozen                          !
 ! Z106  R(106,-3)               8.3719         Frozen                          !
 ! X107  R(107,-1)              -0.9662         Frozen                          !
 ! Y107  R(107,-2)               8.9938         Frozen                          !
 ! Z107  R(107,-3)              -1.6418         Frozen                          !
 ! X108  R(108,-1)              -0.6702         Frozen                          !
 ! Y108  R(108,-2)               9.6296         Frozen                          !
 ! Z108  R(108,-3)              -2.2998         Frozen                          !
 ! X109  R(109,-1)              -0.6256         Frozen                          !
 ! Y109  R(109,-2)               8.1331         Frozen                          !
 ! Z109  R(109,-3)              -1.9085         Frozen                          !
 ! X110  R(110,-1)              -7.4997         Frozen                          !
 ! Y110  R(110,-2)              -4.6784         Frozen                          !
 ! Z110  R(110,-3)              -1.5176         Frozen                          !
 ! X111  R(111,-1)              -7.5594         Frozen                          !
 ! Y111  R(111,-2)              -5.1126         Frozen                          !
 ! Z111  R(111,-3)              -0.6609         Frozen                          !
 ! X112  R(112,-1)              -7.3107         Frozen                          !
 ! Y112  R(112,-2)              -5.3604         Frozen                          !
 ! Z112  R(112,-3)              -2.1698         Frozen                          !
 ! X113  R(113,-1)              -6.8386         Frozen                          !
 ! Y113  R(113,-2)               1.9845         Frozen                          !
 ! Z113  R(113,-3)               2.2165         Frozen                          !
 ! X114  R(114,-1)              -6.508          Frozen                          !
 ! Y114  R(114,-2)               1.5243         Frozen                          !
 ! Z114  R(114,-3)               2.9945         Frozen                          !
 ! X115  R(115,-1)              -7.4131         Frozen                          !
 ! Y115  R(115,-2)               1.3692         Frozen                          !
 ! Z115  R(115,-3)               1.7494         Frozen                          !
 ! X116  R(116,-1)              -5.1406         Frozen                          !
 ! Y116  R(116,-2)               2.6708         Frozen                          !
 ! Z116  R(116,-3)              -2.1642         Frozen                          !
 ! X117  R(117,-1)              -6.0826         Frozen                          !
 ! Y117  R(117,-2)               2.7428         Frozen                          !
 ! Z117  R(117,-3)              -2.3371         Frozen                          !
 ! X118  R(118,-1)              -5.0304         Frozen                          !
 ! Y118  R(118,-2)               2.7905         Frozen                          !
 ! Z118  R(118,-3)              -1.2025         Frozen                          !
 ! R1    R(1,2)                  1.4421         estimate D2E/DX2                !
 ! R2    R(1,12)                 1.445          estimate D2E/DX2                !
 ! R3    R(1,22)                 1.441          estimate D2E/DX2                !
 ! R4    R(2,3)                  1.5355         estimate D2E/DX2                !
 ! R5    R(2,4)                  1.248          estimate D2E/DX2                !
 ! R6    R(2,5)                  1.0991         estimate D2E/DX2                !
 ! R7    R(3,6)                  1.5242         estimate D2E/DX2                !
 ! R8    R(3,7)                  1.1004         estimate D2E/DX2                !
 ! R9    R(3,8)                  1.1022         estimate D2E/DX2                !
 ! R10   R(4,32)                 2.3564         Frozen                          !
 ! R11   R(4,42)                 2.0777         estimate D2E/DX2                !
 ! R12   R(5,49)                 2.1449         estimate D2E/DX2                !
 ! R13   R(6,9)                  1.0987         estimate D2E/DX2                !
 ! R14   R(6,10)                 1.1007         estimate D2E/DX2                !
 ! R15   R(6,11)                 1.1004         estimate D2E/DX2                !
 ! R16   R(8,68)                 2.5072         estimate D2E/DX2                !
 ! R17   R(9,59)                 2.4499         estimate D2E/DX2                !
 ! R18   R(12,13)                1.535          estimate D2E/DX2                !
 ! R19   R(12,14)                1.1013         estimate D2E/DX2                !
 ! R20   R(12,15)                1.0989         estimate D2E/DX2                !
 ! R21   R(13,16)                1.5246         estimate D2E/DX2                !
 ! R22   R(13,17)                1.0998         estimate D2E/DX2                !
 ! R23   R(13,18)                1.1001         estimate D2E/DX2                !
 ! R24   R(16,19)                1.0987         estimate D2E/DX2                !
 ! R25   R(16,20)                1.0998         estimate D2E/DX2                !
 ! R26   R(16,21)                1.1011         estimate D2E/DX2                !
 ! R27   R(17,62)                2.6173         estimate D2E/DX2                !
 ! R28   R(18,53)                2.4349         estimate D2E/DX2                !
 ! R29   R(20,54)                2.4865         estimate D2E/DX2                !
 ! R30   R(21,56)                3.6421         estimate D2E/DX2                !
 ! R31   R(22,23)                1.542          estimate D2E/DX2                !
 ! R32   R(22,24)                1.1026         estimate D2E/DX2                !
 ! R33   R(22,25)                1.1003         estimate D2E/DX2                !
 ! R34   R(23,26)                1.5247         estimate D2E/DX2                !
 ! R35   R(23,27)                1.1016         estimate D2E/DX2                !
 ! R36   R(23,28)                1.1012         estimate D2E/DX2                !
 ! R37   R(25,71)                2.4818         estimate D2E/DX2                !
 ! R38   R(26,29)                1.0983         estimate D2E/DX2                !
 ! R39   R(26,30)                1.1001         estimate D2E/DX2                !
 ! R40   R(26,31)                1.0996         estimate D2E/DX2                !
 ! R41   R(28,62)                2.6476         estimate D2E/DX2                !
 ! R42   R(29,110)               4.1597         estimate D2E/DX2                !
 ! R43   R(29,111)               4.1907         estimate D2E/DX2                !
 ! R44   R(31,78)                4.2673         estimate D2E/DX2                !
 ! R45   R(32,33)                0.9755         estimate D2E/DX2                !
 ! R46   R(32,34)                0.9785         estimate D2E/DX2                !
 ! R47   R(32,36)                1.832          estimate D2E/DX2                !
 ! R48   R(33,38)                1.9243         estimate D2E/DX2                !
 ! R49   R(34,44)                1.821          estimate D2E/DX2                !
 ! R50   R(35,36)                0.9766         estimate D2E/DX2                !
 ! R51   R(35,37)                0.9653         estimate D2E/DX2                !
 ! R52   R(35,39)                1.8339         estimate D2E/DX2                !
 ! R53   R(37,105)               4.6922         estimate D2E/DX2                !
 ! R54   R(38,39)                0.9774         estimate D2E/DX2                !
 ! R55   R(38,40)                0.9827         estimate D2E/DX2                !
 ! R56   R(38,49)                1.8123         estimate D2E/DX2                !
 ! R57   R(40,80)                1.7808         estimate D2E/DX2                !
 ! R58   R(41,42)                0.9683         estimate D2E/DX2                !
 ! R59   R(41,43)                0.9736         estimate D2E/DX2                !
 ! R60   R(43,44)                1.9042         estimate D2E/DX2                !
 ! R61   R(43,94)                4.6925         estimate D2E/DX2                !
 ! R62   R(44,45)                0.9904         estimate D2E/DX2                !
 ! R63   R(44,46)                0.9657         estimate D2E/DX2                !
 ! R64   R(45,65)                1.7211         estimate D2E/DX2                !
 ! R65   R(46,93)                4.7815         estimate D2E/DX2                !
 ! R66   R(46,109)               4.7811         estimate D2E/DX2                !
 ! R67   R(47,48)                0.9725         estimate D2E/DX2                !
 ! R68   R(47,49)                0.9763         estimate D2E/DX2                !
 ! R69   R(48,78)                4.2938         estimate D2E/DX2                !
 ! R70   R(50,51)                0.9623         estimate D2E/DX2                !
 ! R71   R(50,52)                0.9617         estimate D2E/DX2                !
 ! R72   R(50,54)                1.9193         estimate D2E/DX2                !
 ! R73   R(52,83)                1.8616         estimate D2E/DX2                !
 ! R74   R(53,54)                0.9685         estimate D2E/DX2                !
 ! R75   R(53,55)                0.9609         estimate D2E/DX2                !
 ! R76   R(55,86)                1.9845         estimate D2E/DX2                !
 ! R77   R(56,57)                0.9625         estimate D2E/DX2                !
 ! R78   R(56,58)                0.9611         estimate D2E/DX2                !
 ! R79   R(56,105)               4.727          estimate D2E/DX2                !
 ! R80   R(56,106)               4.6527         estimate D2E/DX2                !
 ! R81   R(57,89)                1.899          estimate D2E/DX2                !
 ! R82   R(58,106)               4.7391         estimate D2E/DX2                !
 ! R83   R(59,60)                0.9615         estimate D2E/DX2                !
 ! R84   R(59,61)                0.9619         estimate D2E/DX2                !
 ! R85   R(59,93)                4.6804         estimate D2E/DX2                !
 ! R86   R(62,63)                0.9614         estimate D2E/DX2                !
 ! R87   R(62,64)                0.9613         estimate D2E/DX2                !
 ! R88   R(63,95)                1.916          estimate D2E/DX2                !
 ! R89   R(65,66)                0.9622         estimate D2E/DX2                !
 ! R90   R(65,67)                0.9623         estimate D2E/DX2                !
 ! R91   R(66,98)                1.8519         estimate D2E/DX2                !
 ! R92   R(66,109)               4.6281         estimate D2E/DX2                !
 ! R93   R(67,92)                4.6871         estimate D2E/DX2                !
 ! R94   R(67,93)                4.7417         estimate D2E/DX2                !
 ! R95   R(68,69)                0.9617         estimate D2E/DX2                !
 ! R96   R(68,70)                0.9615         estimate D2E/DX2                !
 ! R97   R(69,101)               1.9            estimate D2E/DX2                !
 ! R98   R(71,72)                0.9618         estimate D2E/DX2                !
 ! R99   R(71,73)                0.9618         estimate D2E/DX2                !
 ! R100  R(72,104)               4.679          estimate D2E/DX2                !
 ! R101  R(74,75)                0.9619         estimate D2E/DX2                !
 ! R102  R(74,76)                0.963          estimate D2E/DX2                !
 ! R103  R(74,81)                1.8447         estimate D2E/DX2                !
 ! R104  R(76,107)               4.6573         estimate D2E/DX2                !
 ! R105  R(76,109)               4.6476         estimate D2E/DX2                !
 ! R106  R(77,78)                0.9624         estimate D2E/DX2                !
 ! R107  R(77,79)                0.962          estimate D2E/DX2                !
 ! R108  R(79,110)               1.9339         estimate D2E/DX2                !
 ! R109  R(80,81)                0.9802         estimate D2E/DX2                !
 ! R110  R(80,82)                0.9797         estimate D2E/DX2                !
 ! R111  R(80,118)               1.826          estimate D2E/DX2                !
 ! R112  R(82,113)               1.8849         estimate D2E/DX2                !
 ! R113  R(83,84)                0.9629         estimate D2E/DX2                !
 ! R114  R(83,85)                0.9625         estimate D2E/DX2                !
 ! R115  R(86,87)                0.962          estimate D2E/DX2                !
 ! R116  R(86,88)                0.9618         estimate D2E/DX2                !
 ! R117  R(89,90)                0.9622         estimate D2E/DX2                !
 ! R118  R(89,91)                0.9628         estimate D2E/DX2                !
 ! R119  R(92,93)                0.9629         estimate D2E/DX2                !
 ! R120  R(92,94)                0.9635         estimate D2E/DX2                !
 ! R121  R(95,96)                0.9623         estimate D2E/DX2                !
 ! R122  R(95,97)                0.9627         estimate D2E/DX2                !
 ! R123  R(98,99)                0.9617         estimate D2E/DX2                !
 ! R124  R(98,100)               0.9626         estimate D2E/DX2                !
 ! R125  R(99,107)               4.7461         estimate D2E/DX2                !
 ! R126  R(101,102)              0.9623         estimate D2E/DX2                !
 ! R127  R(101,103)              0.9623         estimate D2E/DX2                !
 ! R128  R(104,105)              0.963          estimate D2E/DX2                !
 ! R129  R(104,106)              0.9627         estimate D2E/DX2                !
 ! R130  R(107,108)              0.9617         estimate D2E/DX2                !
 ! R131  R(107,109)              0.9633         estimate D2E/DX2                !
 ! R132  R(110,111)              0.9623         estimate D2E/DX2                !
 ! R133  R(110,112)              0.9625         estimate D2E/DX2                !
 ! R134  R(113,114)              0.9625         estimate D2E/DX2                !
 ! R135  R(113,115)              0.9628         estimate D2E/DX2                !
 ! R136  R(116,117)              0.9605         estimate D2E/DX2                !
 ! R137  R(116,118)              0.9754         estimate D2E/DX2                !
 ! A1    A(2,1,12)             119.6974         estimate D2E/DX2                !
 ! A2    A(2,1,22)             119.401          estimate D2E/DX2                !
 ! A3    A(12,1,22)            120.8934         estimate D2E/DX2                !
 ! A4    A(1,2,3)              113.3513         estimate D2E/DX2                !
 ! A5    A(1,2,4)              105.4078         estimate D2E/DX2                !
 ! A6    A(1,2,5)              108.3539         estimate D2E/DX2                !
 ! A7    A(3,2,4)              110.9052         estimate D2E/DX2                !
 ! A8    A(3,2,5)              111.4494         estimate D2E/DX2                !
 ! A9    A(4,2,5)              107.0039         estimate D2E/DX2                !
 ! A10   A(2,3,6)              109.3804         estimate D2E/DX2                !
 ! A11   A(2,3,7)              110.0806         estimate D2E/DX2                !
 ! A12   A(2,3,8)              108.9921         estimate D2E/DX2                !
 ! A13   A(6,3,7)              109.9835         estimate D2E/DX2                !
 ! A14   A(6,3,8)              110.8044         estimate D2E/DX2                !
 ! A15   A(7,3,8)              107.5765         estimate D2E/DX2                !
 ! A16   A(2,4,42)             138.4721         estimate D2E/DX2                !
 ! A17   A(2,5,49)             145.7682         estimate D2E/DX2                !
 ! A18   A(3,6,9)              111.4292         estimate D2E/DX2                !
 ! A19   A(3,6,10)             110.9687         estimate D2E/DX2                !
 ! A20   A(3,6,11)             109.7225         estimate D2E/DX2                !
 ! A21   A(9,6,10)             108.1619         estimate D2E/DX2                !
 ! A22   A(9,6,11)             108.3766         estimate D2E/DX2                !
 ! A23   A(10,6,11)            108.0796         estimate D2E/DX2                !
 ! A24   A(1,12,13)            112.6325         estimate D2E/DX2                !
 ! A25   A(1,12,14)            106.2642         estimate D2E/DX2                !
 ! A26   A(1,12,15)            107.5722         estimate D2E/DX2                !
 ! A27   A(13,12,14)           110.2504         estimate D2E/DX2                !
 ! A28   A(13,12,15)           111.0734         estimate D2E/DX2                !
 ! A29   A(14,12,15)           108.8547         estimate D2E/DX2                !
 ! A30   A(12,13,16)           109.8945         estimate D2E/DX2                !
 ! A31   A(12,13,17)           110.2192         estimate D2E/DX2                !
 ! A32   A(12,13,18)           109.6392         estimate D2E/DX2                !
 ! A33   A(16,13,17)           110.7006         estimate D2E/DX2                !
 ! A34   A(16,13,18)           108.5019         estimate D2E/DX2                !
 ! A35   A(17,13,18)           107.8379         estimate D2E/DX2                !
 ! A36   A(13,16,19)           109.8631         estimate D2E/DX2                !
 ! A37   A(13,16,20)           110.9393         estimate D2E/DX2                !
 ! A38   A(13,16,21)           111.6337         estimate D2E/DX2                !
 ! A39   A(19,16,20)           107.5358         estimate D2E/DX2                !
 ! A40   A(19,16,21)           108.248          estimate D2E/DX2                !
 ! A41   A(20,16,21)           108.4915         estimate D2E/DX2                !
 ! A42   A(13,17,62)           130.7126         estimate D2E/DX2                !
 ! A43   A(13,18,53)           135.0045         estimate D2E/DX2                !
 ! A44   A(16,20,54)           125.5018         estimate D2E/DX2                !
 ! A45   A(16,21,56)           159.145          estimate D2E/DX2                !
 ! A46   A(1,22,23)            111.8923         estimate D2E/DX2                !
 ! A47   A(1,22,24)            106.4908         estimate D2E/DX2                !
 ! A48   A(1,22,25)            109.2561         estimate D2E/DX2                !
 ! A49   A(23,22,24)           108.5122         estimate D2E/DX2                !
 ! A50   A(23,22,25)           110.7176         estimate D2E/DX2                !
 ! A51   A(24,22,25)           109.8719         estimate D2E/DX2                !
 ! A52   A(22,23,26)           109.0565         estimate D2E/DX2                !
 ! A53   A(22,23,27)           109.99           estimate D2E/DX2                !
 ! A54   A(22,23,28)           109.3524         estimate D2E/DX2                !
 ! A55   A(26,23,27)           110.5454         estimate D2E/DX2                !
 ! A56   A(26,23,28)           110.5777         estimate D2E/DX2                !
 ! A57   A(27,23,28)           107.2988         estimate D2E/DX2                !
 ! A58   A(22,25,71)           162.0938         estimate D2E/DX2                !
 ! A59   A(23,26,29)           110.8761         estimate D2E/DX2                !
 ! A60   A(23,26,30)           110.5877         estimate D2E/DX2                !
 ! A61   A(23,26,31)           110.2882         estimate D2E/DX2                !
 ! A62   A(29,26,30)           108.2069         estimate D2E/DX2                !
 ! A63   A(29,26,31)           108.2514         estimate D2E/DX2                !
 ! A64   A(30,26,31)           108.5498         estimate D2E/DX2                !
 ! A65   A(26,29,110)          120.5046         estimate D2E/DX2                !
 ! A66   A(26,29,111)          118.6689         estimate D2E/DX2                !
 ! A67   A(26,31,78)           140.3468         estimate D2E/DX2                !
 ! A68   A(33,32,34)           107.7611         estimate D2E/DX2                !
 ! A69   A(33,32,36)            91.0298         estimate D2E/DX2                !
 ! A70   A(34,32,36)           151.863          estimate D2E/DX2                !
 ! A71   A(32,33,38)           147.6155         estimate D2E/DX2                !
 ! A72   A(36,35,37)           105.7609         estimate D2E/DX2                !
 ! A73   A(36,35,39)            89.0177         estimate D2E/DX2                !
 ! A74   A(37,35,39)           121.2992         estimate D2E/DX2                !
 ! A75   A(32,36,35)           148.3731         estimate D2E/DX2                !
 ! A76   A(33,38,39)            86.42           estimate D2E/DX2                !
 ! A77   A(33,38,40)           124.2851         estimate D2E/DX2                !
 ! A78   A(33,38,49)           130.1708         estimate D2E/DX2                !
 ! A79   A(39,38,40)           107.2469         estimate D2E/DX2                !
 ! A80   A(39,38,49)           112.8134         estimate D2E/DX2                !
 ! A81   A(40,38,49)            94.5044         estimate D2E/DX2                !
 ! A82   A(35,39,38)           151.1908         estimate D2E/DX2                !
 ! A83   A(38,40,80)           163.9154         estimate D2E/DX2                !
 ! A84   A(42,41,43)           100.5021         estimate D2E/DX2                !
 ! A85   A(4,42,41)             99.4447         estimate D2E/DX2                !
 ! A86   A(41,43,44)           152.7955         estimate D2E/DX2                !
 ! A87   A(41,43,94)           121.4986         estimate D2E/DX2                !
 ! A88   A(44,43,94)            85.6993         estimate D2E/DX2                !
 ! A89   A(34,44,43)            76.8228         estimate D2E/DX2                !
 ! A90   A(34,44,45)           122.2854         estimate D2E/DX2                !
 ! A91   A(34,44,46)           112.3763         estimate D2E/DX2                !
 ! A92   A(43,44,45)           122.5858         estimate D2E/DX2                !
 ! A93   A(43,44,46)           116.9004         estimate D2E/DX2                !
 ! A94   A(45,44,46)           104.5912         estimate D2E/DX2                !
 ! A95   A(44,46,93)           104.631          estimate D2E/DX2                !
 ! A96   A(44,46,109)          101.72           estimate D2E/DX2                !
 ! A97   A(93,46,109)          122.2773         estimate D2E/DX2                !
 ! A98   A(48,47,49)           102.5105         estimate D2E/DX2                !
 ! A99   A(47,48,78)           100.3661         estimate D2E/DX2                !
 ! A100  A(5,49,38)             90.1097         estimate D2E/DX2                !
 ! A101  A(5,49,47)             93.6629         estimate D2E/DX2                !
 ! A102  A(51,50,52)           107.3028         estimate D2E/DX2                !
 ! A103  A(51,50,54)           120.0081         estimate D2E/DX2                !
 ! A104  A(52,50,54)           129.2508         estimate D2E/DX2                !
 ! A105  A(18,53,54)           111.1113         estimate D2E/DX2                !
 ! A106  A(18,53,55)           128.1992         estimate D2E/DX2                !
 ! A107  A(54,53,55)           106.3195         estimate D2E/DX2                !
 ! A108  A(20,54,50)            80.5744         estimate D2E/DX2                !
 ! A109  A(20,54,53)           102.9298         estimate D2E/DX2                !
 ! A110  A(21,56,57)           105.1289         estimate D2E/DX2                !
 ! A111  A(21,56,58)           110.0494         estimate D2E/DX2                !
 ! A112  A(21,56,105)          117.8753         estimate D2E/DX2                !
 ! A113  A(21,56,106)          111.8891         estimate D2E/DX2                !
 ! A114  A(57,56,58)           107.1538         estimate D2E/DX2                !
 ! A115  A(57,56,105)          113.394          estimate D2E/DX2                !
 ! A116  A(57,56,106)          131.0471         estimate D2E/DX2                !
 ! A117  A(58,56,105)          102.8577         estimate D2E/DX2                !
 ! A118  A(105,56,106)          18.9544         estimate D2E/DX2                !
 ! A119  A(9,59,60)            120.4015         estimate D2E/DX2                !
 ! A120  A(9,59,61)            118.9611         estimate D2E/DX2                !
 ! A121  A(9,59,93)             95.7101         estimate D2E/DX2                !
 ! A122  A(60,59,61)           107.2126         estimate D2E/DX2                !
 ! A123  A(60,59,93)           118.5573         estimate D2E/DX2                !
 ! A124  A(61,59,93)            92.6318         estimate D2E/DX2                !
 ! A125  A(17,62,28)            51.6019         estimate D2E/DX2                !
 ! A126  A(17,62,63)           118.0066         estimate D2E/DX2                !
 ! A127  A(17,62,64)           128.4758         estimate D2E/DX2                !
 ! A128  A(28,62,63)           133.3184         estimate D2E/DX2                !
 ! A129  A(28,62,64)           111.3286         estimate D2E/DX2                !
 ! A130  A(63,62,64)           106.8563         estimate D2E/DX2                !
 ! A131  A(45,65,66)           114.9911         estimate D2E/DX2                !
 ! A132  A(45,65,67)           115.6466         estimate D2E/DX2                !
 ! A133  A(66,65,67)           107.3257         estimate D2E/DX2                !
 ! A134  A(65,66,109)           96.1778         estimate D2E/DX2                !
 ! A135  A(98,66,109)           83.4953         estimate D2E/DX2                !
 ! A136  A(65,67,92)           117.2525         estimate D2E/DX2                !
 ! A137  A(65,67,93)           106.7615         estimate D2E/DX2                !
 ! A138  A(8,68,69)            123.3624         estimate D2E/DX2                !
 ! A139  A(8,68,70)            117.1227         estimate D2E/DX2                !
 ! A140  A(69,68,70)           106.8564         estimate D2E/DX2                !
 ! A141  A(25,71,72)           116.4406         estimate D2E/DX2                !
 ! A142  A(25,71,73)           135.3099         estimate D2E/DX2                !
 ! A143  A(72,71,73)           106.7535         estimate D2E/DX2                !
 ! A144  A(71,72,104)          115.9761         estimate D2E/DX2                !
 ! A145  A(75,74,76)           107.3239         estimate D2E/DX2                !
 ! A146  A(75,74,81)           122.1921         estimate D2E/DX2                !
 ! A147  A(76,74,81)           116.5221         estimate D2E/DX2                !
 ! A148  A(74,76,107)          129.2391         estimate D2E/DX2                !
 ! A149  A(74,76,109)          126.1466         estimate D2E/DX2                !
 ! A150  A(78,77,79)           106.9968         estimate D2E/DX2                !
 ! A151  A(31,78,48)            50.9074         estimate D2E/DX2                !
 ! A152  A(31,78,77)           121.2523         estimate D2E/DX2                !
 ! A153  A(48,78,77)           156.0375         estimate D2E/DX2                !
 ! A154  A(40,80,81)           115.6384         estimate D2E/DX2                !
 ! A155  A(40,80,82)           121.0705         estimate D2E/DX2                !
 ! A156  A(40,80,118)           93.0518         estimate D2E/DX2                !
 ! A157  A(81,80,82)           107.6609         estimate D2E/DX2                !
 ! A158  A(81,80,118)          102.6157         estimate D2E/DX2                !
 ! A159  A(82,80,118)          114.7485         estimate D2E/DX2                !
 ! A160  A(52,83,84)           114.5712         estimate D2E/DX2                !
 ! A161  A(52,83,85)           114.696          estimate D2E/DX2                !
 ! A162  A(84,83,85)           107.1884         estimate D2E/DX2                !
 ! A163  A(55,86,87)           117.6222         estimate D2E/DX2                !
 ! A164  A(55,86,88)           117.3734         estimate D2E/DX2                !
 ! A165  A(87,86,88)           107.1363         estimate D2E/DX2                !
 ! A166  A(57,89,90)           123.9397         estimate D2E/DX2                !
 ! A167  A(57,89,91)           113.6898         estimate D2E/DX2                !
 ! A168  A(90,89,91)           107.1293         estimate D2E/DX2                !
 ! A169  A(67,92,94)            84.5355         estimate D2E/DX2                !
 ! A170  A(93,92,94)           106.5963         estimate D2E/DX2                !
 ! A171  A(46,93,59)            72.6199         estimate D2E/DX2                !
 ! A172  A(46,93,67)            44.9282         estimate D2E/DX2                !
 ! A173  A(46,93,92)           108.981          estimate D2E/DX2                !
 ! A174  A(59,93,67)           116.088          estimate D2E/DX2                !
 ! A175  A(59,93,92)           114.5125         estimate D2E/DX2                !
 ! A176  A(43,94,92)           132.7635         estimate D2E/DX2                !
 ! A177  A(63,95,96)           116.8768         estimate D2E/DX2                !
 ! A178  A(63,95,97)           122.0382         estimate D2E/DX2                !
 ! A179  A(96,95,97)           107.3119         estimate D2E/DX2                !
 ! A180  A(66,98,99)           122.0702         estimate D2E/DX2                !
 ! A181  A(66,98,100)          117.6108         estimate D2E/DX2                !
 ! A182  A(99,98,100)          107.2798         estimate D2E/DX2                !
 ! A183  A(98,99,107)           97.8096         estimate D2E/DX2                !
 ! A184  A(69,101,102)         116.3914         estimate D2E/DX2                !
 ! A185  A(69,101,103)         110.4333         estimate D2E/DX2                !
 ! A186  A(102,101,103)        107.0699         estimate D2E/DX2                !
 ! A187  A(72,104,105)          97.5753         estimate D2E/DX2                !
 ! A188  A(72,104,106)          82.6502         estimate D2E/DX2                !
 ! A189  A(105,104,106)        106.8186         estimate D2E/DX2                !
 ! A190  A(37,105,56)           57.3522         estimate D2E/DX2                !
 ! A191  A(37,105,104)         124.825          estimate D2E/DX2                !
 ! A192  A(56,105,104)         113.0942         estimate D2E/DX2                !
 ! A193  A(56,106,104)         118.4582         estimate D2E/DX2                !
 ! A194  A(58,106,104)         127.9756         estimate D2E/DX2                !
 ! A195  A(76,107,99)          101.7641         estimate D2E/DX2                !
 ! A196  A(76,107,108)         155.9067         estimate D2E/DX2                !
 ! A197  A(99,107,108)         100.9915         estimate D2E/DX2                !
 ! A198  A(99,107,109)          83.2799         estimate D2E/DX2                !
 ! A199  A(108,107,109)        107.0051         estimate D2E/DX2                !
 ! A200  A(46,109,66)           46.1126         estimate D2E/DX2                !
 ! A201  A(46,109,76)           95.3807         estimate D2E/DX2                !
 ! A202  A(46,109,107)         160.6914         estimate D2E/DX2                !
 ! A203  A(66,109,76)          108.3577         estimate D2E/DX2                !
 ! A204  A(66,109,107)         115.606          estimate D2E/DX2                !
 ! A205  A(29,110,79)          102.8275         estimate D2E/DX2                !
 ! A206  A(29,110,112)          95.5368         estimate D2E/DX2                !
 ! A207  A(79,110,111)         123.9121         estimate D2E/DX2                !
 ! A208  A(79,110,112)         126.4983         estimate D2E/DX2                !
 ! A209  A(111,110,112)        107.2019         estimate D2E/DX2                !
 ! A210  A(82,113,114)         115.5665         estimate D2E/DX2                !
[...]
  Beta virt. eigenvalues --    1.13917   1.14192   1.14245   1.14343   1.14403
  Beta virt. eigenvalues --    1.14600   1.14752   1.14828   1.15542   1.15872
  Beta virt. eigenvalues --    1.16093   1.17000   1.17664   1.18755   1.19285
  Beta virt. eigenvalues --    1.19720   1.20516   1.21548   1.21973   1.22884
  Beta virt. eigenvalues --    1.23595   1.24332   1.25196   1.25530   1.26147
  Beta virt. eigenvalues --    1.26976   1.27807   1.29338   1.29866   1.30534
  Beta virt. eigenvalues --    1.31115   1.31363   1.31577   1.32036   1.32773
  Beta virt. eigenvalues --    1.32909   1.33798   1.34477   1.35384   1.36098
  Beta virt. eigenvalues --    1.36275   1.36688   1.37088   1.37366   1.37373
  Beta virt. eigenvalues --    1.37404   1.37499   1.37668   1.37715   1.37771
  Beta virt. eigenvalues --    1.37874   1.37930   1.38289   1.38615   1.38629
  Beta virt. eigenvalues --    1.38699   1.39011   1.39058   1.39077   1.39138
  Beta virt. eigenvalues --    1.39187   1.39443   1.39733   1.39928   1.40356
  Beta virt. eigenvalues --    1.40598   1.40731   1.40952   1.41151   1.41220
  Beta virt. eigenvalues --    1.41400   1.41792   1.42190   1.42222   1.42499
  Beta virt. eigenvalues --    1.43490   1.43729   1.44350   1.44645   1.45267
  Beta virt. eigenvalues --    1.46061   1.46600   1.47122   1.47257   1.47648
  Beta virt. eigenvalues --    1.47827   1.48135   1.48280   1.48421   1.48550
  Beta virt. eigenvalues --    1.48732   1.48983   1.49181   1.49257   1.49409
  Beta virt. eigenvalues --    1.49808   1.50466   1.51470   1.51950   1.53376
  Beta virt. eigenvalues --    1.54056   1.54301   1.55264   1.55872   1.56372
  Beta virt. eigenvalues --    1.57209   1.57598   1.58203   1.58445   1.58659
  Beta virt. eigenvalues --    1.58927   1.59158   1.59404   1.59589   1.60133
  Beta virt. eigenvalues --    1.60531   1.60910   1.61023   1.61103   1.61120
  Beta virt. eigenvalues --    1.61393   1.61850   1.62194   1.62520   1.62616
  Beta virt. eigenvalues --    1.62800   1.63276   1.63590   1.64055   1.64341
  Beta virt. eigenvalues --    1.64769   1.64839   1.65610   1.66147   1.66174
  Beta virt. eigenvalues --    1.66464   1.66727   1.66774   1.67363   1.67573
  Beta virt. eigenvalues --    1.67888   1.68192   1.68775   1.69682   1.70233
  Beta virt. eigenvalues --    1.70285   1.70985   1.71754   1.72479   1.73065
  Beta virt. eigenvalues --    1.74874   1.78266   1.79050   1.79282   1.80296
  Beta virt. eigenvalues --    1.80568   1.80638   1.80811   1.80876   1.80992
  Beta virt. eigenvalues --    1.81105   1.81182   1.81285   1.81320   1.81366
  Beta virt. eigenvalues --    1.81448   1.81457   1.81564   1.81754   1.82056
  Beta virt. eigenvalues --    1.82292   1.82306   1.82557   1.82875   1.82957
  Beta virt. eigenvalues --    1.83365   1.83730   1.84230   1.84380   1.84826
  Beta virt. eigenvalues --    1.84910   1.85330   1.85418   1.85756   1.86373
  Beta virt. eigenvalues --    1.86592   1.86839   1.87291   1.87558   1.87894
  Beta virt. eigenvalues --    1.88107   1.88726   1.89980   1.90345   1.90750
  Beta virt. eigenvalues --    1.91011   1.91421   1.92522   1.92790   1.93434
  Beta virt. eigenvalues --    1.93993   1.95136   1.95613   1.96056   1.96231
  Beta virt. eigenvalues --    1.97822   1.98426   1.98832   1.99391   2.00829
  Beta virt. eigenvalues --    2.01572   2.02255   2.03296   2.03833   2.05294
  Beta virt. eigenvalues --    2.07307   2.08092   2.08879   2.11098   2.14098
  Beta virt. eigenvalues --    2.14533   2.15534   2.21086   2.23857   2.26875
  Beta virt. eigenvalues --    2.27529   2.27635   2.27703   2.27731   2.27862
  Beta virt. eigenvalues --    2.27898   2.27934   2.27982   2.28094   2.28294
  Beta virt. eigenvalues --    2.28638   2.29043   2.29070   2.29255   2.29259
  Beta virt. eigenvalues --    2.29323   2.29414   2.29495   2.29607   2.29684
  Beta virt. eigenvalues --    2.29720   2.30445   2.30718   2.30807   2.30878
  Beta virt. eigenvalues --    2.30988   2.31125   2.31139   2.31236   2.31521
  Beta virt. eigenvalues --    2.31781   2.32135   2.32162   2.32199   2.32268
  Beta virt. eigenvalues --    2.32360   2.32389   2.32490   2.32522   2.32619
  Beta virt. eigenvalues --    2.33446   2.35031   2.36809   2.37965   2.39159
  Beta virt. eigenvalues --    2.39598   2.40648   2.41119   2.41813   2.42356
  Beta virt. eigenvalues --    2.42806   2.42941   2.43359   2.43541   2.44133
  Beta virt. eigenvalues --    2.44660   2.45072   2.45763   2.46575   2.46648
  Beta virt. eigenvalues --    2.47009   2.47079   2.48264   2.48888   2.49023
  Beta virt. eigenvalues --    2.49416   2.49803   2.50249   2.50907   2.52491
  Beta virt. eigenvalues --    2.53694   2.54787   2.56222   2.60019   2.60494
  Beta virt. eigenvalues --    2.60958   2.61382   2.61615   2.62214   2.63001
  Beta virt. eigenvalues --    2.69807   2.70695   2.71922   2.76375   2.76830
  Beta virt. eigenvalues --    2.85340   2.86498   2.87459   2.88110   2.91284
  Beta virt. eigenvalues --    2.92115   2.92616   2.94794   2.95497   2.95908
  Beta virt. eigenvalues --    2.96455   2.97068   2.98488   2.98540   2.98607
  Beta virt. eigenvalues --    2.98672   2.98741   2.98813   2.98841   2.98892
  Beta virt. eigenvalues --    2.98905   2.99026   2.99591   2.99763   3.00009
  Beta virt. eigenvalues --    3.00138   3.00167   3.00566   3.00632   3.00646
  Beta virt. eigenvalues --    3.00720   3.00812   3.01536   3.01798   3.01836
  Beta virt. eigenvalues --    3.02148   3.02253   3.02265   3.02748   3.03375
  Beta virt. eigenvalues --    3.03700   3.03794   3.04177   3.04445   3.05219
  Beta virt. eigenvalues --    3.05276   3.05494   3.05615   3.05713   3.05873
  Beta virt. eigenvalues --    3.05887   3.05907   3.06170   3.06207   3.06262
  Beta virt. eigenvalues --    3.06479   3.06967   3.07109   3.07512   3.07533
  Beta virt. eigenvalues --    3.07730   3.07845   3.07868   3.07936   3.08093
  Beta virt. eigenvalues --    3.08212   3.08490   3.08539   3.08786   3.09248
  Beta virt. eigenvalues --    3.09266   3.09373   3.09715   3.10041   3.10688
  Beta virt. eigenvalues --    3.11735   3.13676   3.20170   3.21237   3.21343
  Beta virt. eigenvalues --    3.21578   3.21762   3.21801   3.21848   3.21862
  Beta virt. eigenvalues --    3.21964   3.22066   3.22157   3.22498   3.22588
  Beta virt. eigenvalues --    3.22700   3.22934   3.23022   3.23126   3.23162
  Beta virt. eigenvalues --    3.23368   3.23553   3.24159   3.24390   3.24444
  Beta virt. eigenvalues --    3.25085   3.25404   3.26282   3.26491   3.28015
  Beta virt. eigenvalues --    3.28072   3.28787   3.30617   3.53802   3.54694
  Beta virt. eigenvalues --    3.55085   3.55320   3.55367   3.55395   3.55470
  Beta virt. eigenvalues --    3.55807   3.56133   3.56148   3.56498   3.56668
  Beta virt. eigenvalues --    3.56881   3.57025   3.57132   3.57255   3.57630
  Beta virt. eigenvalues --    3.58586   3.59131   3.59484   3.59902   3.60083
  Beta virt. eigenvalues --    3.60240   3.60251   3.60460   3.60788   3.60881
  Beta virt. eigenvalues --    3.62489   3.62622   3.82531   3.82640   3.82792
  Beta virt. eigenvalues --    3.82803   3.82841   3.82935   3.83062   3.83168
  Beta virt. eigenvalues --    3.83237   3.83584   3.84049   3.84107   3.84237
  Beta virt. eigenvalues --    3.84290   3.85215   3.85444   3.86167   3.86867
  Beta virt. eigenvalues --    3.86928   3.87063   3.87176   3.87956   3.88045
  Beta virt. eigenvalues --    3.88793   3.91764   3.92632   3.93442   3.95299
  Beta virt. eigenvalues --    3.97055
          Condensed to atoms (all electrons):
          Atomic-Atomic Spin Densities.
 Mulliken charges and spin densities:
               1          2
     1  N   -0.148464   0.840832
     2  C    0.031634  -0.057460
     3  C   -0.099660   0.049114
     4  H   -0.001873   0.057709
     5  H    0.054972   0.001412
     6  C   -0.075293   0.005581
     7  H    0.049811  -0.002524
     8  H    0.051741   0.000693
     9  H    0.046220   0.001190
    10  H    0.040713  -0.000362
    11  H    0.009671  -0.000193
    12  C    0.007169  -0.051680
    13  C   -0.099084   0.049646
    14  H    0.082884   0.039781
    15  H    0.073288   0.002834
    16  C   -0.073060   0.007608
    17  H    0.063361  -0.002267
    18  H    0.048912  -0.000755
    19  H    0.046190   0.002095
    20  H    0.036049  -0.000301
    21  H    0.037907  -0.000693
    22  C    0.022708  -0.055604
    23  C   -0.105368   0.059127
    24  H    0.053521   0.033785
    25  H    0.079124   0.007322
    26  C   -0.080640   0.008714
    27  H    0.053446  -0.002489
    28  H    0.054935  -0.001071
    29  H    0.052928   0.002125
    30  H    0.043134  -0.000478
    31  H    0.046360  -0.000441
    32  O   -0.381949   0.002463
    33  H    0.198493   0.000195
    34  H    0.188230   0.000053
    35  O   -0.343318   0.001514
    36  H    0.195580  -0.000314
    37  H    0.216499   0.000719
    38  O   -0.393147   0.000447
    39  H    0.192729  -0.000586
    40  H    0.205945   0.000127
    41  O   -0.353890   0.001112
    42  H    0.176877  -0.000086
    43  H    0.182077   0.000091
    44  O   -0.379356  -0.000001
    45  H    0.205628   0.000001
    46  H    0.216931  -0.000009
    47  O   -0.391396   0.000152
    48  H    0.162936   0.000160
    49  H    0.165161  -0.000041
    50  O   -0.359804  -0.000002
    51  H    0.198019   0.000000
    52  H    0.169405  -0.000000
    53  O   -0.392277   0.000055
    54  H    0.171458   0.000009
    55  H    0.155966  -0.000012
    56  O   -0.409251   0.000035
    57  H    0.165927  -0.000005
    58  H    0.183859   0.000005
    59  O   -0.348018   0.000044
    60  H    0.194221   0.000005
    61  H    0.194400   0.000005
    62  O   -0.362406   0.000056
    63  H    0.162345   0.000017
    64  H    0.185548  -0.000002
    65  O   -0.367718   0.000001
    66  H    0.183817  -0.000000
    67  H    0.208930  -0.000000
    68  O   -0.356919   0.000098
    69  H    0.160323   0.000005
    70  H    0.185503  -0.000003
    71  O   -0.342739   0.000325
    72  H    0.195964   0.000027
    73  H    0.194167   0.000046
    74  O   -0.347122   0.000000
    75  H    0.212081   0.000000
    76  H    0.213060   0.000000
    77  O   -0.410268  -0.000000
    78  H    0.183114   0.000000
    79  H    0.167091   0.000000
    80  O   -0.388282   0.000017
    81  H    0.205413   0.000001
    82  H    0.199744   0.000000
    83  O   -0.347404  -0.000000
    84  H    0.211513   0.000000
    85  H    0.211582  -0.000000
    86  O   -0.348923   0.000001
    87  H    0.204665  -0.000000
    88  H    0.205604   0.000000
    89  O   -0.349718   0.000005
    90  H    0.207688  -0.000000
    91  H    0.207597   0.000001
    92  O   -0.384244  -0.000000
    93  H    0.192048   0.000000
    94  H    0.192179   0.000000
    95  O   -0.349348   0.000001
    96  H    0.208333   0.000000
    97  H    0.208276   0.000000
    98  O   -0.347934   0.000000
    99  H    0.211286  -0.000000
   100  H    0.211713   0.000000
   101  O   -0.346582   0.000001
   102  H    0.209490   0.000000
   103  H    0.209289   0.000000
   104  O   -0.384568  -0.000000
   105  H    0.192340   0.000000
   106  H    0.192200   0.000000
   107  O   -0.384694  -0.000000
   108  H    0.192168   0.000000
   109  H    0.192558   0.000000
   110  O   -0.350934   0.000002
   111  H    0.205909   0.000000
   112  H    0.205721   0.000000
   113  O   -0.346549  -0.000000
   114  H    0.211814   0.000000
   115  H    0.212014   0.000000
   116  O   -0.388276   0.000012
   117  H    0.194400   0.000001
   118  H    0.165970  -0.000001
 Sum of Mulliken charges =   1.00000   1.00000
 Mulliken charges and spin densities with hydrogens summed into heavy atoms:
               1          2
     1  N   -0.148464   0.840832
     2  C    0.084733   0.001662
     3  C    0.001893   0.047283
     6  C    0.021311   0.006217
    12  C    0.163341  -0.009066
    13  C    0.013190   0.046624
    16  C    0.047085   0.008709
    22  C    0.155354  -0.014496
    23  C    0.003012   0.055568
    26  C    0.061783   0.009920
    32  O    0.004774   0.002711
    35  O    0.068761   0.001919
    38  O    0.005528  -0.000011
    41  O    0.005064   0.001117
    44  O    0.043204  -0.000009
    47  O   -0.063298   0.000271
    50  O    0.007621  -0.000003
    53  O   -0.064853   0.000051
    56  O   -0.059465   0.000034
    59  O    0.040603   0.000054
    62  O   -0.014514   0.000071
    65  O    0.025029   0.000001
    68  O   -0.011093   0.000099
    71  O    0.047392   0.000398
    74  O    0.078020   0.000000
    77  O   -0.060062   0.000000
    80  O    0.016875   0.000018
    83  O    0.075690   0.000000
    86  O    0.061346   0.000001
    89  O    0.065567   0.000005
    92  O   -0.000017  -0.000000
    95  O    0.067260   0.000002
    98  O    0.075065   0.000000
   101  O    0.072197   0.000002
   104  O   -0.000029   0.000000
   107  O    0.000031   0.000000
   110  O    0.060696   0.000003
   113  O    0.077279   0.000000
   116  O   -0.027906   0.000013
 Electronic spatial extent (au):  <R**2>=          50316.7897
 Charge=              1.0000 electrons
 Dipole moment (field-independent basis, Debye):
    X=              4.4722    Y=              1.3289    Z=              3.0164  Tot=              5.5556
 Quadrupole moment (field-independent basis, Debye-Ang):
   XX=           -149.0772   YY=            -10.4213   ZZ=           -140.1653
   XY=             -4.8786   XZ=             -5.9052   YZ=             -1.4019
 Traceless Quadrupole moment (field-independent basis, Debye-Ang):
   XX=            -49.1893   YY=             89.4666   ZZ=            -40.2774
   XY=             -4.8786   XZ=             -5.9052   YZ=             -1.4019
 Octapole moment (field-independent basis, Debye-Ang**2):
  XXX=            435.4910  YYY=            197.4950  ZZZ=           -374.5686  XYY=             53.3032
  XXY=           -395.0513  XXZ=            183.9599  XZZ=            201.9121  YZZ=           -229.9858
  YYZ=            110.0933  XYZ=            165.1482
 Hexadecapole moment (field-independent basis, Debye-Ang**3):
 XXXX=         -20948.7047 YYYY=          -6478.0482 ZZZZ=          -9908.4530 XXXY=          -2849.8299
 XXXZ=           -103.4757 YYYX=           1819.6953 YYYZ=          -1034.8895 ZZZX=            490.3267
 ZZZY=           -204.6547 XXYY=          -2963.6344 XXZZ=          -4522.1159 YYZZ=          -2414.9816
 XXYZ=            638.9046 YYXZ=            312.2216 ZZXY=           -489.3200
 N-N= 5.629011229262D+03 E-N=-1.741705740425D+04  KE= 2.602334859379D+03
 Leave Link  601 at Tue Mar  3 13:51:16 2026, MaxMem=  1610612736 cpu:               3.2 elap:               1.7
 (Enter /leonardo/prod/opt/applications/g16/c02/binary/g16/l9999.exe)
 Unable to Open any file for archive entry.
 1\1\GINC-LRDN4063\FOpt\UM062X\def2SVP\C9H79N1O29(1+,2)\MORZA000\03-Mar
 -2026\0\\#p opt(addredundant) M062X/def2svp scrf=(cpcm,solvent=water) 
 empiricaldispersion=GD3\\Title Card Required\\1,2\N,-0.1630123737,-0.9
 214531722,0.374993395\C,-0.1016977957,-0.0263485144,-0.7540252109\C,0.
 8540240981,-0.5043359445,-1.8570591941\H,0.2630087121,0.9405142733,-0.
 3553350482\H,-1.1217784516,0.1135507528,-1.1391072197\C,1.0913903687,0
 .6288294791,-2.8483006857\H,1.8103587607,-0.823402345,-1.416272277\H,0
 .4113622165,-1.3794750695,-2.360097033\H,1.7390918406,0.3082076529,-3.
 6759002932\H,0.1413949686,0.9860839839,-3.2740872936\H,1.5757741763,1.
 4728352892,-2.3350200656\C,1.0337114733,-1.1971576239,1.1365208644\C,1
 .5015065266,-2.652220389,0.9968203245\H,0.7872617498,-0.9739973578,2.1
 867166114\H,1.8123035377,-0.4996164744,0.7975557901\C,2.8164794462,-2.
 8490159578,1.7429249846\H,0.7310865201,-3.3375171095,1.3794149306\H,1.
 6639408715,-2.8866457273,-0.0656935821\H,3.088447518,-3.913473258,1.74
 60035508\H,3.6328768697,-2.2995804792,1.2519172161\H,2.7452228742,-2.5
 085509235,2.7875684312\C,-1.4253852486,-1.5119866266,0.741862194\C,-1.
 7942527018,-2.6955215666,-0.1751462463\H,-2.186421101,-0.7237522991,0.
 6192559186\H,-1.3852476189,-1.8300227648,1.7943713514\C,-3.2469800807,
 -3.0848160717,0.0752415386\H,-1.6473423533,-2.4147673751,-1.2302161468
 \H,-1.1228078546,-3.542802444,0.0344437806\H,-3.525993411,-3.962727015
 3,-0.5228327499\H,-3.4057797192,-3.3275046811,1.136427634\H,-3.9138664
 528,-2.2542457452,-0.198057213\O,0.2944081588,3.0366148242,0.720754020
 8\H,-0.6010435881,2.9551599475,0.34224079\H,0.8547390845,3.5134987062,
 0.0755377904\O,-0.6668112867,1.0574234257,2.3171724311\H,-0.1005121346
 ,1.8042981041,2.0462664559\H,-0.7377278254,1.1188718049,3.2779745182\O
 ,-2.3203095908,2.1110263729,0.4157187821\H,-2.0059878941,1.6788557868,
 1.2344265968\H,-3.1698119451,2.556276069,0.6298659185\O,2.6746467131,1
 .5064679453,0.1473387132\H,1.928440148,1.7885455942,0.6966183007\H,2.7
 954668761,2.2997656046,-0.4033548235\O,2.2303122074,4.0326721821,-1.00
 38136846\H,2.7725529254,4.845260202,-0.8427204296\H,1.9634382607,4.099
 7347915,-1.9295464568\O,-3.5212331915,0.3583096254,-1.3907410945\H,-4.
 1143613742,0.967677065,-1.8625815557\H,-3.0675747975,0.9496446433,-0.7
 602072875\O,6.01504,-1.92951,-0.32826\H,6.28735,-1.02353,-0.50438\H,6.
 79164,-2.40731,-0.0226\O,3.61456,-2.98806,-1.53144\H,4.39453,-2.61162,
 -1.09802\H,3.92791,-3.73228,-2.05227\O,2.85079,-0.29855,5.66204\H,3.30
 935,0.4895,5.35365\H,3.38899,-0.68563,6.35786\O,3.25846,0.07908,-5.588
 \H,2.90826,0.0447,-6.48278\H,3.98485,-0.54989,-5.54225\O,0.13789,-5.79
 526,0.63573\H,0.01838,-6.45547,1.32428\H,0.40878,-6.26574,-0.15756\O,3
 .67776,6.30748,-0.70356\H,3.40122,6.89426,0.00708\H,4.63112,6.19875,-0
 .6308\O,-0.80008,-3.10749,-3.72219\H,-1.44098,-2.88007,-4.40218\H,-0.2
 8626,-3.84689,-4.05945\O,-1.96649,-2.90193,3.96161\H,-2.70441,-2.52162
 ,4.44729\H,-1.52182,-3.50732,4.56226\O,-4.86599,6.00077,0.38933\H,-5.1
 2962,6.43983,-0.42494\H,-4.0735,6.44379,0.71039\O,-8.36452,-1.97877,-2
 .07389\H,-7.53562,-1.56497,-2.33457\H,-8.16874,-2.8993,-1.87432\O,-4.8
 3278,3.1901,0.56821\H,-4.91806,4.16654,0.57813\H,-5.53012,2.82491,1.15
 139\O,8.17715,-3.4434,0.66474\H,8.06961,-3.69399,1.58825\H,8.36003,-4.
 24906,0.17084\O,4.66671,-5.06928,-3.31905\H,5.32773,-4.76832,-3.94992\
 H,4.03891,-5.61299,-3.80409\O,4.53701,1.85186,4.86079\H,4.2868,2.76597
 ,4.69438\H,5.1427,1.59143,4.15918\O,6.72505,3.44631,-3.79441\H,6.01093
 ,3.67303,-4.39917\H,6.4013,2.72434,-3.24462\O,-0.18587,-7.78686,2.6868
 5\H,0.34413,-7.67955,3.48289\H,-1.0508,-8.10969,2.9599\O,2.83403,7.980
 84,1.39525\H,2.75865,8.93473,1.29898\H,2.07845,7.68514,1.91311\O,-2.79
 143,-2.52514,-5.69067\H,-2.79421,-1.64312,-6.07556\H,-3.66388,-2.67072
 ,-5.31174\O,-1.59794,-0.12754,8.31211\H,-1.21645,0.64338,7.87904\H,-0.
 89962,-0.78747,8.37189\O,-0.96618,8.99378,-1.64175\H,-0.67024,9.62963,
 -2.29976\H,-0.62559,8.13312,-1.90851\O,-7.49974,-4.67841,-1.51755\H,-7
 .55941,-5.11265,-0.66091\H,-7.31068,-5.36041,-2.16983\O,-6.83859,1.984
 5,2.21651\H,-6.50805,1.52433,2.99452\H,-7.41311,1.36918,1.74938\O,-5.1
 4056,2.6708,-2.16419\H,-6.08261,2.74278,-2.33711\H,-5.03043,2.79048,-1
 .20249\\Version=ES64L-G16RevC.02\State=2-A\HF=-2623.5029126\S2=0.7549\
 S2-1=0.\S2A=0.750021\RMSD=3.119e-09\RMSF=3.976e-03\Dipole=1.7590072,0.
 5301612,1.1842143\Quadrupole=-36.5558973,66.4891869,-29.9332896,-3.954
 5486,-4.3745363,-1.204908\PG=C01 [X(C9H79N1O29)]\\@
 The archive entry for this job was punched.


 IT IS THE GODS' CUSTOM TO BRING LOW ALL THINGS OF SURPASSING GREATNESS.
     -- HERODOTUS
 IT IS THE LOFTY PINE THAT BY THE STORM IS OFTENER TOSSED;
 TOWERS FALL WITH HEAVIER CRASH WHICH HIGHER SOAR.
     -- HORACE
 THE BIGGER THEY COME, THE HARDER THEY FALL.
     -- BOB FITZSIMONS HEAVYWEIGHT CHAMPION, 1897-1899
 Job cpu time:       0 days 21 hours 14 minutes  3.1 seconds.
 Elapsed time:       0 days  2 hours  4 minutes 32.2 seconds.
 File lengths (MBytes):  RWF=   1857 Int=      0 D2E=      0 Chk=    107 Scr=      1
 Normal termination of Gaussian 16 at Tue Mar  3 13:51:22 2026.
