 Set GAUSS_PDEF to "12".
 Entering Gaussian System, Link 0=g16
 Initial command:
 /leonardo/prod/opt/applications/g16/c02/binary/g16/l1.exe "/leonardo_scratch/large/userexternal/morza000/g16_35403108/Gau-243983.inp" -scrdir="/leonardo_scratch/large/userexternal/morza000/g16_35403108/"
 Default is to use a total of  12 processors:
                               12 via shared-memory
                                1 via Linda
 Entering Link 1 = /leonardo/prod/opt/applications/g16/c02/binary/g16/l1.exe PID=    243986.
  
 Copyright (c) 1988-2021, Gaussian, Inc.  All Rights Reserved.
  
 This is part of the Gaussian(R) 16 program.  It is based on
 the Gaussian(R) 09 system (copyright 2009, Gaussian, Inc.),
 the Gaussian(R) 03 system (copyright 2003, Gaussian, Inc.),
 the Gaussian(R) 98 system (copyright 1998, Gaussian, Inc.),
 the Gaussian(R) 94 system (copyright 1995, Gaussian, Inc.),
 the Gaussian 92(TM) system (copyright 1992, Gaussian, Inc.),
 the Gaussian 90(TM) system (copyright 1990, Gaussian, Inc.),
 the Gaussian 88(TM) system (copyright 1988, Gaussian, Inc.),
 the Gaussian 86(TM) system (copyright 1986, Carnegie Mellon
 University), and the Gaussian 82(TM) system (copyright 1983,
 Carnegie Mellon University). Gaussian is a federally registered
 trademark of Gaussian, Inc.
  
 This software contains proprietary and confidential information,
 including trade secrets, belonging to Gaussian, Inc.
  
 This software is provided under written license and may be
 used, copied, transmitted, or stored only in accord with that
 written license.
  
 The following legend is applicable only to US Government
 contracts under FAR:
  
                    RESTRICTED RIGHTS LEGEND
  
 Use, reproduction and disclosure by the US Government is
 subject to restrictions as set forth in subparagraphs (a)
 and (c) of the Commercial Computer Software - Restricted
 Rights clause in FAR 52.227-19.
  
 Gaussian, Inc.
 340 Quinnipiac St., Bldg. 40, Wallingford CT 06492
  
  
 ---------------------------------------------------------------
 Warning -- This program may not be used in any manner that
 competes with the business of Gaussian, Inc. or will provide
 assistance to any competitor of Gaussian, Inc.  The licensee
 of this program is prohibited from giving any competitor of
 Gaussian, Inc. access to this program.  By using this program,
 the user acknowledges that Gaussian, Inc. is engaged in the
 business of creating and licensing software in the field of
 computational chemistry and represents and warrants to the
 licensee that it is not a competitor of Gaussian, Inc. and that
 it will not use this program in any manner prohibited above.
 ---------------------------------------------------------------
  

 Cite this work as:
 Gaussian 16, Revision C.02,
 M. J. Frisch, G. W. Trucks, H. B. Schlegel, G. E. Scuseria, 
 M. A. Robb, J. R. Cheeseman, G. Scalmani, V. Barone, 
 G. A. Petersson, H. Nakatsuji, X. Li, M. Caricato, A. V. Marenich, 
 J. Bloino, B. G. Janesko, R. Gomperts, B. Mennucci, H. P. Hratchian, 
 J. V. Ortiz, A. F. Izmaylov, J. L. Sonnenberg, D. Williams-Young, 
 F. Ding, F. Lipparini, F. Egidi, J. Goings, B. Peng, A. Petrone, 
 T. Henderson, D. Ranasinghe, V. G. Zakrzewski, J. Gao, N. Rega, 
 G. Zheng, W. Liang, M. Hada, M. Ehara, K. Toyota, R. Fukuda, 
 J. Hasegawa, M. Ishida, T. Nakajima, Y. Honda, O. Kitao, H. Nakai, 
 T. Vreven, K. Throssell, J. A. Montgomery, Jr., J. E. Peralta, 
 F. Ogliaro, M. J. Bearpark, J. J. Heyd, E. N. Brothers, K. N. Kudin, 
 V. N. Staroverov, T. A. Keith, R. Kobayashi, J. Normand, 
 K. Raghavachari, A. P. Rendell, J. C. Burant, S. S. Iyengar, 
 J. Tomasi, M. Cossi, J. M. Millam, M. Klene, C. Adamo, R. Cammi, 
 J. W. Ochterski, R. L. Martin, K. Morokuma, O. Farkas, 
 J. B. Foresman, and D. J. Fox, Gaussian, Inc., Wallingford CT, 2019.
 
 ******************************************
 Gaussian 16:  ES64L-G16RevC.02  7-Dec-2021
                 3-Mar-2026 
 ******************************************
 %nprocshared=12
 Will use up to   12 processors via shared memory.
 %mem=12GB
 ----------------------------------------------------------------------
 #p opt(addredundant) M062X/def2svp scrf=(cpcm,solvent=water) empirical
 dispersion=GD3
 ----------------------------------------------------------------------
 1/18=120,19=15,26=3,38=1/1,3;
 2/9=110,12=2,17=6,18=5,40=1/2;
 3/5=43,7=101,11=2,25=1,30=1,70=2101,71=1,72=1,74=-55,124=31/1,2,3;
 4//1;
 5/5=2,38=5,53=1/2;
 6/7=2,8=2,9=2,10=2,28=1/1;
 7//1,2,3,16;
 1/18=20,19=15,26=3/3(2);
 2/9=110/2;
 99//99;
 2/9=110/2;
 3/5=43,7=101,11=2,25=1,30=1,70=2105,71=1,72=1,74=-55,124=31/1,2,3;
 4/5=5,16=3,69=1/1;
 5/5=2,38=5,53=1/2;
 7//1,2,3,16;
 1/18=20,19=15,26=3/3(-5);
 2/9=110/2;
 6/7=2,8=2,9=2,10=2,19=2,28=1/1;
 99/9=1/99;
 Leave Link    1 at Tue Mar  3 11:37:14 2026, MaxMem=  1610612736 cpu:               0.1 elap:               0.8
 (Enter /leonardo/prod/opt/applications/g16/c02/binary/g16/l101.exe)
 -------------------
 Title Card Required
 -------------------
 Symbolic Z-matrix:
 Charge =  1 Multiplicity = 2
 N                    -0.16833  -0.93058   0.37843 
 C                    -0.1      -0.0386   -0.75268 
 C                     0.85873  -0.52071  -1.85091 
 H                     0.26902   1.37119  -0.13055 
 H                    -1.11772   0.10498  -1.1422 
 C                     1.09351   0.60757  -2.84841 
 H                     1.81507  -0.83473  -1.40641 
 H                     0.41928  -1.39956  -2.35024 
 H                     1.74605   0.28609  -3.67181 
 H                     0.14281   0.95589  -3.28004 
 H                     1.5702    1.45925  -2.34027 
 C                     1.02529  -1.20875   1.1439 
 C                     1.50138  -2.65984   0.98928 
 H                     0.7729   -1.00038   2.19542 
 H                     1.80074  -0.50163   0.81797 
 C                     2.81715  -2.85632   1.73402 
 H                     0.73488  -3.35339   1.36468 
 H                     1.66596  -2.88354  -0.07519 
 H                     3.09424  -3.91944   1.7282 
 H                     3.63105  -2.29909   1.24768 
 H                     2.74417  -2.52477   2.78146 
 C                    -1.43396  -1.51534   0.74277 
 C                    -1.80212  -2.70334  -0.1688 
 H                    -2.1926   -0.72585   0.61249 
 H                    -1.39849  -1.82972   1.79662 
 C                    -3.24934  -3.10378   0.09547 
 H                    -1.66513  -2.42378  -1.22552 
 H                    -1.12359  -3.54569   0.03767 
 H                    -3.52672  -3.98419  -0.49964 
 H                    -3.39541  -3.34737   1.15827 
 H                    -3.92758  -2.28028  -0.17111 
 O                     0.25764   3.16356   0.77105 
 H                    -0.61673   3.03372   0.35859 
 H                     0.84135   3.58349   0.10739 
 O                    -0.62678   1.08965   2.2788 
 H                    -0.10229   1.87132   2.01872 
 H                    -0.69084   1.1253    3.24132 
 O                    -2.31414   2.12823   0.39895 
 H                    -1.99137   1.68904   1.21032 
 H                    -3.16751   2.5615    0.62196 
 O                     2.60425   1.53458   0.20631 
 H                     1.87949   1.83374   0.77456 
 H                     2.72687   2.32137  -0.35392 
 O                     2.21923   4.04251  -0.99107 
 H                     2.77013   4.85144  -0.839 
 H                     1.94758   4.10347  -1.9158 
 O                    -3.50061   0.37163  -1.41076 
 H                    -4.10399   0.97501  -1.87719 
 H                    -3.04848   0.96773  -0.78361 
 O                     6.01504  -1.92951  -0.32826 
 H                     6.28735  -1.02353  -0.50438 
 H                     6.79164  -2.40731  -0.0226 
 O                     3.61456  -2.98806  -1.53144 
 H                     4.39453  -2.61162  -1.09802 
 H                     3.92791  -3.73228  -2.05227 
 O                     2.85079  -0.29855   5.66204 
 H                     3.30935   0.4895    5.35365 
 H                     3.38899  -0.68563   6.35786 
 O                     3.25846   0.07908  -5.588 
 H                     2.90826   0.0447   -6.48278 
 H                     3.98485  -0.54989  -5.54225 
 O                     0.13789  -5.79526   0.63573 
 H                     0.01838  -6.45547   1.32428 
 H                     0.40878  -6.26574  -0.15756 
 O                     3.67776   6.30748  -0.70356 
 H                     3.40122   6.89426   0.00708 
 H                     4.63112   6.19875  -0.6308 
 O                    -0.80008  -3.10749  -3.72219 
 H                    -1.44098  -2.88007  -4.40218 
 H                    -0.28626  -3.84689  -4.05945 
 O                    -1.96649  -2.90193   3.96161 
 H                    -2.70441  -2.52162   4.44729 
 H                    -1.52182  -3.50732   4.56226 
 O                    -4.86599   6.00077   0.38933 
 H                    -5.12962   6.43983  -0.42494 
 H                    -4.0735    6.44379   0.71039 
 O                    -8.36452  -1.97877  -2.07389 
 H                    -7.53562  -1.56497  -2.33457 
 H                    -8.16874  -2.8993   -1.87432 
 O                    -4.83278   3.1901    0.56821 
 H                    -4.91806   4.16654   0.57813 
 H                    -5.53012   2.82491   1.15139 
 O                     8.17715  -3.4434    0.66474 
 H                     8.06961  -3.69399   1.58825 
 H                     8.36003  -4.24906   0.17084 
 O                     4.66671  -5.06928  -3.31905 
 H                     5.32773  -4.76832  -3.94992 
 H                     4.03891  -5.61299  -3.80409 
 O                     4.53701   1.85186   4.86079 
 H                     4.2868    2.76597   4.69438 
 H                     5.1427    1.59143   4.15918 
 O                     6.72505   3.44631  -3.79441 
 H                     6.01093   3.67303  -4.39917 
 H                     6.4013    2.72434  -3.24462 
 O                    -0.18587  -7.78686   2.68685 
 H                     0.34413  -7.67955   3.48289 
 H                    -1.0508   -8.10969   2.9599 
 O                     2.83403   7.98084   1.39525 
 H                     2.75865   8.93473   1.29898 
 H                     2.07845   7.68514   1.91311 
 O                    -2.79143  -2.52514  -5.69067 
 H                    -2.79421  -1.64312  -6.07556 
 H                    -3.66388  -2.67072  -5.31174 
 O                    -1.59794  -0.12754   8.31211 
 H                    -1.21645   0.64338   7.87904 
 H                    -0.89962  -0.78747   8.37189 
 O                    -0.96618   8.99378  -1.64175 
 H                    -0.67024   9.62963  -2.29976 
 H                    -0.62559   8.13312  -1.90851 
 O                    -7.49974  -4.67841  -1.51755 
 H                    -7.55941  -5.11265  -0.66091 
 H                    -7.31068  -5.36041  -2.16983 
 O                    -6.83859   1.9845    2.21651 
 H                    -6.50805   1.52433   2.99452 
 H                    -7.41311   1.36918   1.74938 
 O                    -5.14056   2.6708   -2.16419 
 H                    -6.08261   2.74278  -2.33711 
 H                    -5.03043   2.79048  -1.20249 
 
 Add virtual bond connecting atoms H4         and C2         Dist= 2.99D+00.
 Add virtual bond connecting atoms O65        and H45        Dist= 3.25D+00.
 Add virtual bond connecting atoms O80        and H40        Dist= 3.37D+00.
 Add virtual bond connecting atoms H49        and O38        Dist= 3.42D+00.
 Add virtual bond connecting atoms O44        and H34        Dist= 3.44D+00.
 Add virtual bond connecting atoms H118       and O80        Dist= 3.45D+00.
 Add virtual bond connecting atoms H36        and O32        Dist= 3.46D+00.
 Add virtual bond connecting atoms O38        and H33        Dist= 3.64D+00.
 Add virtual bond connecting atoms H39        and O35        Dist= 3.47D+00.
 Add virtual bond connecting atoms H81        and O74        Dist= 3.49D+00.
 Add virtual bond connecting atoms O98        and H66        Dist= 3.50D+00.
 Add virtual bond connecting atoms O83        and H52        Dist= 3.52D+00.
 Add virtual bond connecting atoms O113       and H82        Dist= 3.56D+00.
 Add virtual bond connecting atoms O89        and H57        Dist= 3.59D+00.
 Add virtual bond connecting atoms O101       and H69        Dist= 3.59D+00.
 Add virtual bond connecting atoms O44        and H43        Dist= 3.60D+00.
 Add virtual bond connecting atoms O32        and H4         Dist= 3.79D+00.
 Add virtual bond connecting atoms H33        and H4         Dist= 3.68D+00.
 Add virtual bond connecting atoms H42        and H4         Dist= 3.60D+00.
 Add virtual bond connecting atoms O95        and H63        Dist= 3.62D+00.
 Add virtual bond connecting atoms H54        and O50        Dist= 3.63D+00.
 Add virtual bond connecting atoms O110       and H79        Dist= 3.65D+00.
 Add virtual bond connecting atoms O86        and H55        Dist= 3.75D+00.
 Add virtual bond connecting atoms O53        and H18        Dist= 4.60D+00.
 Add virtual bond connecting atoms H54        and H20        Dist= 4.70D+00.
 Add virtual bond connecting atoms O59        and H9         Dist= 4.63D+00.
 Add virtual bond connecting atoms O71        and H25        Dist= 4.69D+00.
 Add virtual bond connecting atoms O68        and H8         Dist= 4.74D+00.
 Add virtual bond connecting atoms O62        and H17        Dist= 4.95D+00.
 Add virtual bond connecting atoms O62        and H28        Dist= 5.00D+00.
 Add virtual bond connecting atoms O56        and H21        Dist= 6.88D+00.
 Add virtual bond connecting atoms H78        and H31        Dist= 8.06D+00.
 Add virtual bond connecting atoms H78        and H48        Dist= 8.11D+00.
 Add virtual bond connecting atoms O110       and H29        Dist= 7.86D+00.
 Add virtual bond connecting atoms H111       and H29        Dist= 7.92D+00.
 Add virtual bond connecting atoms O107       and H76        Dist= 8.80D+00.
 Add virtual bond connecting atoms O107       and H99        Dist= 8.97D+00.
 Add virtual bond connecting atoms H109       and H46        Dist= 9.04D+00.
 Add virtual bond connecting atoms H109       and H66        Dist= 8.75D+00.
 Add virtual bond connecting atoms H109       and H76        Dist= 8.78D+00.
 Add virtual bond connecting atoms O92        and H67        Dist= 8.86D+00.
 Add virtual bond connecting atoms H93        and H46        Dist= 9.04D+00.
 Add virtual bond connecting atoms H93        and O59        Dist= 8.84D+00.
 Add virtual bond connecting atoms H93        and H67        Dist= 8.96D+00.
 Add virtual bond connecting atoms H94        and H43        Dist= 8.87D+00.
 Add virtual bond connecting atoms O104       and H72        Dist= 8.84D+00.
 Add virtual bond connecting atoms H105       and H37        Dist= 8.87D+00.
 Add virtual bond connecting atoms H105       and O56        Dist= 8.93D+00.
 Add virtual bond connecting atoms H106       and O56        Dist= 8.79D+00.
 Add virtual bond connecting atoms H106       and H58        Dist= 8.96D+00.
 The following ModRedundant input section has been read:
 B       4      32 F                                                           
 X      50 F                                                                   
 X      51 F                                                                   
 X      52 F                                                                   
 X      53 F                                                                   
 X      54 F                                                                   
 X      55 F                                                                   
 X      56 F                                                                   
 X      57 F                                                                   
 X      58 F                                                                   
 X      59 F                                                                   
 X      60 F                                                                   
 X      61 F                                                                   
 X      62 F                                                                   
 X      63 F                                                                   
 X      64 F                                                                   
 X      65 F                                                                   
 X      66 F                                                                   
 X      67 F                                                                   
 X      68 F                                                                   
 X      69 F                                                                   
 X      70 F                                                                   
 X      71 F                                                                   
 X      72 F                                                                   
 X      73 F                                                                   
 X      74 F                                                                   
 X      75 F                                                                   
 X      76 F                                                                   
 X      77 F                                                                   
 X      78 F                                                                   
 X      79 F                                                                   
 X      80 F                                                                   
 X      81 F                                                                   
 X      82 F                                                                   
 X      83 F                                                                   
 X      84 F                                                                   
 X      85 F                                                                   
 X      86 F                                                                   
 X      87 F                                                                   
 X      88 F                                                                   
 X      89 F                                                                   
 X      90 F                                                                   
 X      91 F                                                                   
 X      92 F                                                                   
 X      93 F                                                                   
 X      94 F                                                                   
 X      95 F                                                                   
 X      96 F                                                                   
 X      97 F                                                                   
 X      98 F                                                                   
 X      99 F                                                                   
 X     100 F                                                                   
 X     101 F                                                                   
 X     102 F                                                                   
 X     103 F                                                                   
 X     104 F                                                                   
 X     105 F                                                                   
 X     106 F                                                                   
 X     107 F                                                                   
 X     108 F                                                                   
 X     109 F                                                                   
 X     110 F                                                                   
 X     111 F                                                                   
 X     112 F                                                                   
 X     113 F                                                                   
 X     114 F                                                                   
 X     115 F                                                                   
 X     116 F                                                                   
 X     117 F                                                                   
 X     118 F                                                                   
 
 ITRead=  0  0  0  0  0  0  0  0  0  0  0  0  0  0  0  0  0  0  0  0
 ITRead=  0  0  0  0  0  0  0  0  0  0  0  0  0  0  0  0  0  0  0  0
 ITRead=  0  0  0  0  0  0  0  0  0  0  0  0  0  0  0  0  0  0  0  0
 ITRead=  0  0  0  0  0  0  0  0  0  0  0  0  0  0  0  0  0  0  0  0
 ITRead=  0  0  0  0  0  0  0  0  0  0  0  0  0  0  0  0  0  0  0  0
 ITRead=  0  0  0  0  0  0  0  0  0  0  0  0  0  0  0  0  0  0
 MicOpt= -1 -1 -1 -1 -1 -1 -1 -1 -1 -1 -1 -1 -1 -1 -1 -1 -1 -1 -1 -1
 MicOpt= -1 -1 -1 -1 -1 -1 -1 -1 -1 -1 -1 -1 -1 -1 -1 -1 -1 -1 -1 -1
 MicOpt= -1 -1 -1 -1 -1 -1 -1 -1 -1 -1 -1 -1 -1 -1 -1 -1 -1 -1 -1 -1
 MicOpt= -1 -1 -1 -1 -1 -1 -1 -1 -1 -1 -1 -1 -1 -1 -1 -1 -1 -1 -1 -1
 MicOpt= -1 -1 -1 -1 -1 -1 -1 -1 -1 -1 -1 -1 -1 -1 -1 -1 -1 -1 -1 -1
 MicOpt= -1 -1 -1 -1 -1 -1 -1 -1 -1 -1 -1 -1 -1 -1 -1 -1 -1 -1
 NAtoms=    118 NQM=      118 NQMF=       0 NMMI=      0 NMMIF=      0
                NMic=       0 NMicF=      0.
                    Isotopes and Nuclear Properties:
 (Nuclear quadrupole moments (NQMom) in fm**2, nuclear magnetic moments (NMagM)
  in nuclear magnetons)

  Atom         1           2           3           4           5           6           7           8           9          10
 IAtWgt=          14          12          12           1           1          12           1           1           1           1
 AtmWgt=  14.0030740  12.0000000  12.0000000   1.0078250   1.0078250  12.0000000   1.0078250   1.0078250   1.0078250   1.0078250
 NucSpn=           2           0           0           1           1           0           1           1           1           1
 AtZEff=  -0.0000000  -0.0000000  -0.0000000  -0.0000000  -0.0000000  -0.0000000  -0.0000000  -0.0000000  -0.0000000  -0.0000000
 NQMom=    2.0440000   0.0000000   0.0000000   0.0000000   0.0000000   0.0000000   0.0000000   0.0000000   0.0000000   0.0000000
 NMagM=    0.4037610   0.0000000   0.0000000   2.7928460   2.7928460   0.0000000   2.7928460   2.7928460   2.7928460   2.7928460
 AtZNuc=   7.0000000   6.0000000   6.0000000   1.0000000   1.0000000   6.0000000   1.0000000   1.0000000   1.0000000   1.0000000

  Atom        11          12          13          14          15          16          17          18          19          20
 IAtWgt=           1          12          12           1           1          12           1           1           1           1
 AtmWgt=   1.0078250  12.0000000  12.0000000   1.0078250   1.0078250  12.0000000   1.0078250   1.0078250   1.0078250   1.0078250
 NucSpn=           1           0           0           1           1           0           1           1           1           1
 AtZEff=  -0.0000000  -0.0000000  -0.0000000  -0.0000000  -0.0000000  -0.0000000  -0.0000000  -0.0000000  -0.0000000  -0.0000000
 NQMom=    0.0000000   0.0000000   0.0000000   0.0000000   0.0000000   0.0000000   0.0000000   0.0000000   0.0000000   0.0000000
 NMagM=    2.7928460   0.0000000   0.0000000   2.7928460   2.7928460   0.0000000   2.7928460   2.7928460   2.7928460   2.7928460
 AtZNuc=   1.0000000   6.0000000   6.0000000   1.0000000   1.0000000   6.0000000   1.0000000   1.0000000   1.0000000   1.0000000

  Atom        21          22          23          24          25          26          27          28          29          30
 IAtWgt=           1          12          12           1           1          12           1           1           1           1
 AtmWgt=   1.0078250  12.0000000  12.0000000   1.0078250   1.0078250  12.0000000   1.0078250   1.0078250   1.0078250   1.0078250
 NucSpn=           1           0           0           1           1           0           1           1           1           1
 AtZEff=  -0.0000000  -0.0000000  -0.0000000  -0.0000000  -0.0000000  -0.0000000  -0.0000000  -0.0000000  -0.0000000  -0.0000000
 NQMom=    0.0000000   0.0000000   0.0000000   0.0000000   0.0000000   0.0000000   0.0000000   0.0000000   0.0000000   0.0000000
 NMagM=    2.7928460   0.0000000   0.0000000   2.7928460   2.7928460   0.0000000   2.7928460   2.7928460   2.7928460   2.7928460
 AtZNuc=   1.0000000   6.0000000   6.0000000   1.0000000   1.0000000   6.0000000   1.0000000   1.0000000   1.0000000   1.0000000

  Atom        31          32          33          34          35          36          37          38          39          40
 IAtWgt=           1          16           1           1          16           1           1          16           1           1
 AtmWgt=   1.0078250  15.9949146   1.0078250   1.0078250  15.9949146   1.0078250   1.0078250  15.9949146   1.0078250   1.0078250
 NucSpn=           1           0           1           1           0           1           1           0           1           1
 AtZEff=  -0.0000000  -0.0000000  -0.0000000  -0.0000000  -0.0000000  -0.0000000  -0.0000000  -0.0000000  -0.0000000  -0.0000000
 NQMom=    0.0000000   0.0000000   0.0000000   0.0000000   0.0000000   0.0000000   0.0000000   0.0000000   0.0000000   0.0000000
 NMagM=    2.7928460   0.0000000   2.7928460   2.7928460   0.0000000   2.7928460   2.7928460   0.0000000   2.7928460   2.7928460
 AtZNuc=   1.0000000   8.0000000   1.0000000   1.0000000   8.0000000   1.0000000   1.0000000   8.0000000   1.0000000   1.0000000

  Atom        41          42          43          44          45          46          47          48          49          50
 IAtWgt=          16           1           1          16           1           1          16           1           1          16
 AtmWgt=  15.9949146   1.0078250   1.0078250  15.9949146   1.0078250   1.0078250  15.9949146   1.0078250   1.0078250  15.9949146
 NucSpn=           0           1           1           0           1           1           0           1           1           0
 AtZEff=  -0.0000000  -0.0000000  -0.0000000  -0.0000000  -0.0000000  -0.0000000  -0.0000000  -0.0000000  -0.0000000  -0.0000000
 NQMom=    0.0000000   0.0000000   0.0000000   0.0000000   0.0000000   0.0000000   0.0000000   0.0000000   0.0000000   0.0000000
 NMagM=    0.0000000   2.7928460   2.7928460   0.0000000   2.7928460   2.7928460   0.0000000   2.7928460   2.7928460   0.0000000
 AtZNuc=   8.0000000   1.0000000   1.0000000   8.0000000   1.0000000   1.0000000   8.0000000   1.0000000   1.0000000   8.0000000

  Atom        51          52          53          54          55          56          57          58          59          60
 IAtWgt=           1           1          16           1           1          16           1           1          16           1
 AtmWgt=   1.0078250   1.0078250  15.9949146   1.0078250   1.0078250  15.9949146   1.0078250   1.0078250  15.9949146   1.0078250
 NucSpn=           1           1           0           1           1           0           1           1           0           1
 AtZEff=  -0.0000000  -0.0000000  -0.0000000  -0.0000000  -0.0000000  -0.0000000  -0.0000000  -0.0000000  -0.0000000  -0.0000000
 NQMom=    0.0000000   0.0000000   0.0000000   0.0000000   0.0000000   0.0000000   0.0000000   0.0000000   0.0000000   0.0000000
 NMagM=    2.7928460   2.7928460   0.0000000   2.7928460   2.7928460   0.0000000   2.7928460   2.7928460   0.0000000   2.7928460
 AtZNuc=   1.0000000   1.0000000   8.0000000   1.0000000   1.0000000   8.0000000   1.0000000   1.0000000   8.0000000   1.0000000

  Atom        61          62          63          64          65          66          67          68          69          70
 IAtWgt=           1          16           1           1          16           1           1          16           1           1
 AtmWgt=   1.0078250  15.9949146   1.0078250   1.0078250  15.9949146   1.0078250   1.0078250  15.9949146   1.0078250   1.0078250
 NucSpn=           1           0           1           1           0           1           1           0           1           1
 AtZEff=  -0.0000000  -0.0000000  -0.0000000  -0.0000000  -0.0000000  -0.0000000  -0.0000000  -0.0000000  -0.0000000  -0.0000000
 NQMom=    0.0000000   0.0000000   0.0000000   0.0000000   0.0000000   0.0000000   0.0000000   0.0000000   0.0000000   0.0000000
 NMagM=    2.7928460   0.0000000   2.7928460   2.7928460   0.0000000   2.7928460   2.7928460   0.0000000   2.7928460   2.7928460
 AtZNuc=   1.0000000   8.0000000   1.0000000   1.0000000   8.0000000   1.0000000   1.0000000   8.0000000   1.0000000   1.0000000

  Atom        71          72          73          74          75          76          77          78          79          80
 IAtWgt=          16           1           1          16           1           1          16           1           1          16
 AtmWgt=  15.9949146   1.0078250   1.0078250  15.9949146   1.0078250   1.0078250  15.9949146   1.0078250   1.0078250  15.9949146
 NucSpn=           0           1           1           0           1           1           0           1           1           0
 AtZEff=  -0.0000000  -0.0000000  -0.0000000  -0.0000000  -0.0000000  -0.0000000  -0.0000000  -0.0000000  -0.0000000  -0.0000000
 NQMom=    0.0000000   0.0000000   0.0000000   0.0000000   0.0000000   0.0000000   0.0000000   0.0000000   0.0000000   0.0000000
 NMagM=    0.0000000   2.7928460   2.7928460   0.0000000   2.7928460   2.7928460   0.0000000   2.7928460   2.7928460   0.0000000
 AtZNuc=   8.0000000   1.0000000   1.0000000   8.0000000   1.0000000   1.0000000   8.0000000   1.0000000   1.0000000   8.0000000

  Atom        81          82          83          84          85          86          87          88          89          90
 IAtWgt=           1           1          16           1           1          16           1           1          16           1
 AtmWgt=   1.0078250   1.0078250  15.9949146   1.0078250   1.0078250  15.9949146   1.0078250   1.0078250  15.9949146   1.0078250
 NucSpn=           1           1           0           1           1           0           1           1           0           1
 AtZEff=  -0.0000000  -0.0000000  -0.0000000  -0.0000000  -0.0000000  -0.0000000  -0.0000000  -0.0000000  -0.0000000  -0.0000000
 NQMom=    0.0000000   0.0000000   0.0000000   0.0000000   0.0000000   0.0000000   0.0000000   0.0000000   0.0000000   0.0000000
 NMagM=    2.7928460   2.7928460   0.0000000   2.7928460   2.7928460   0.0000000   2.7928460   2.7928460   0.0000000   2.7928460
 AtZNuc=   1.0000000   1.0000000   8.0000000   1.0000000   1.0000000   8.0000000   1.0000000   1.0000000   8.0000000   1.0000000

  Atom        91          92          93          94          95          96          97          98          99         100
 IAtWgt=           1          16           1           1          16           1           1          16           1           1
 AtmWgt=   1.0078250  15.9949146   1.0078250   1.0078250  15.9949146   1.0078250   1.0078250  15.9949146   1.0078250   1.0078250
 NucSpn=           1           0           1           1           0           1           1           0           1           1
 AtZEff=  -0.0000000  -0.0000000  -0.0000000  -0.0000000  -0.0000000  -0.0000000  -0.0000000  -0.0000000  -0.0000000  -0.0000000
 NQMom=    0.0000000   0.0000000   0.0000000   0.0000000   0.0000000   0.0000000   0.0000000   0.0000000   0.0000000   0.0000000
 NMagM=    2.7928460   0.0000000   2.7928460   2.7928460   0.0000000   2.7928460   2.7928460   0.0000000   2.7928460   2.7928460
 AtZNuc=   1.0000000   8.0000000   1.0000000   1.0000000   8.0000000   1.0000000   1.0000000   8.0000000   1.0000000   1.0000000

  Atom       101         102         103         104         105         106         107         108         109         110
 IAtWgt=          16           1           1          16           1           1          16           1           1          16
 AtmWgt=  15.9949146   1.0078250   1.0078250  15.9949146   1.0078250   1.0078250  15.9949146   1.0078250   1.0078250  15.9949146
 NucSpn=           0           1           1           0           1           1           0           1           1           0
 AtZEff=  -0.0000000  -0.0000000  -0.0000000  -0.0000000  -0.0000000  -0.0000000  -0.0000000  -0.0000000  -0.0000000  -0.0000000
 NQMom=    0.0000000   0.0000000   0.0000000   0.0000000   0.0000000   0.0000000   0.0000000   0.0000000   0.0000000   0.0000000
 NMagM=    0.0000000   2.7928460   2.7928460   0.0000000   2.7928460   2.7928460   0.0000000   2.7928460   2.7928460   0.0000000
 AtZNuc=   8.0000000   1.0000000   1.0000000   8.0000000   1.0000000   1.0000000   8.0000000   1.0000000   1.0000000   8.0000000

  Atom       111         112         113         114         115         116         117         118
 IAtWgt=           1           1          16           1           1          16           1           1
 AtmWgt=   1.0078250   1.0078250  15.9949146   1.0078250   1.0078250  15.9949146   1.0078250   1.0078250
 NucSpn=           1           1           0           1           1           0           1           1
 AtZEff=  -0.0000000  -0.0000000  -0.0000000  -0.0000000  -0.0000000  -0.0000000  -0.0000000  -0.0000000
 NQMom=    0.0000000   0.0000000   0.0000000   0.0000000   0.0000000   0.0000000   0.0000000   0.0000000
 NMagM=    2.7928460   2.7928460   0.0000000   2.7928460   2.7928460   0.0000000   2.7928460   2.7928460
 AtZNuc=   1.0000000   1.0000000   8.0000000   1.0000000   1.0000000   8.0000000   1.0000000   1.0000000
 Leave Link  101 at Tue Mar  3 11:37:14 2026, MaxMem=  1610612736 cpu:               0.5 elap:               0.5
 (Enter /leonardo/prod/opt/applications/g16/c02/binary/g16/l103.exe)

 GradGradGradGradGradGradGradGradGradGradGradGradGradGradGradGradGradGrad
 Berny optimization.
 Initialization pass.
                           ----------------------------
                           !    Initial Parameters    !
                           ! (Angstroms and Degrees)  !
 --------------------------                            --------------------------
 ! Name  Definition              Value          Derivative Info.                !
 --------------------------------------------------------------------------------
 ! X50   R(50,-1)                6.015          Frozen                          !
 ! Y50   R(50,-2)               -1.9295         Frozen                          !
 ! Z50   R(50,-3)               -0.3283         Frozen                          !
 ! X51   R(51,-1)                6.2873         Frozen                          !
 ! Y51   R(51,-2)               -1.0235         Frozen                          !
 ! Z51   R(51,-3)               -0.5044         Frozen                          !
 ! X52   R(52,-1)                6.7916         Frozen                          !
 ! Y52   R(52,-2)               -2.4073         Frozen                          !
 ! Z52   R(52,-3)               -0.0226         Frozen                          !
 ! X53   R(53,-1)                3.6146         Frozen                          !
 ! Y53   R(53,-2)               -2.9881         Frozen                          !
 ! Z53   R(53,-3)               -1.5314         Frozen                          !
 ! X54   R(54,-1)                4.3945         Frozen                          !
 ! Y54   R(54,-2)               -2.6116         Frozen                          !
 ! Z54   R(54,-3)               -1.098          Frozen                          !
 ! X55   R(55,-1)                3.9279         Frozen                          !
 ! Y55   R(55,-2)               -3.7323         Frozen                          !
 ! Z55   R(55,-3)               -2.0523         Frozen                          !
 ! X56   R(56,-1)                2.8508         Frozen                          !
 ! Y56   R(56,-2)               -0.2986         Frozen                          !
 ! Z56   R(56,-3)                5.662          Frozen                          !
 ! X57   R(57,-1)                3.3094         Frozen                          !
 ! Y57   R(57,-2)                0.4895         Frozen                          !
 ! Z57   R(57,-3)                5.3537         Frozen                          !
 ! X58   R(58,-1)                3.389          Frozen                          !
 ! Y58   R(58,-2)               -0.6856         Frozen                          !
 ! Z58   R(58,-3)                6.3579         Frozen                          !
 ! X59   R(59,-1)                3.2585         Frozen                          !
 ! Y59   R(59,-2)                0.0791         Frozen                          !
 ! Z59   R(59,-3)               -5.588          Frozen                          !
 ! X60   R(60,-1)                2.9083         Frozen                          !
 ! Y60   R(60,-2)                0.0447         Frozen                          !
 ! Z60   R(60,-3)               -6.4828         Frozen                          !
 ! X61   R(61,-1)                3.9848         Frozen                          !
 ! Y61   R(61,-2)               -0.5499         Frozen                          !
 ! Z61   R(61,-3)               -5.5423         Frozen                          !
 ! X62   R(62,-1)                0.1379         Frozen                          !
 ! Y62   R(62,-2)               -5.7953         Frozen                          !
 ! Z62   R(62,-3)                0.6357         Frozen                          !
 ! X63   R(63,-1)                0.0184         Frozen                          !
 ! Y63   R(63,-2)               -6.4555         Frozen                          !
 ! Z63   R(63,-3)                1.3243         Frozen                          !
 ! X64   R(64,-1)                0.4088         Frozen                          !
 ! Y64   R(64,-2)               -6.2657         Frozen                          !
 ! Z64   R(64,-3)               -0.1576         Frozen                          !
 ! X65   R(65,-1)                3.6778         Frozen                          !
 ! Y65   R(65,-2)                6.3075         Frozen                          !
 ! Z65   R(65,-3)               -0.7036         Frozen                          !
 ! X66   R(66,-1)                3.4012         Frozen                          !
 ! Y66   R(66,-2)                6.8943         Frozen                          !
 ! Z66   R(66,-3)                0.0071         Frozen                          !
 ! X67   R(67,-1)                4.6311         Frozen                          !
 ! Y67   R(67,-2)                6.1987         Frozen                          !
 ! Z67   R(67,-3)               -0.6308         Frozen                          !
 ! X68   R(68,-1)               -0.8001         Frozen                          !
 ! Y68   R(68,-2)               -3.1075         Frozen                          !
 ! Z68   R(68,-3)               -3.7222         Frozen                          !
 ! X69   R(69,-1)               -1.441          Frozen                          !
 ! Y69   R(69,-2)               -2.8801         Frozen                          !
 ! Z69   R(69,-3)               -4.4022         Frozen                          !
 ! X70   R(70,-1)               -0.2863         Frozen                          !
 ! Y70   R(70,-2)               -3.8469         Frozen                          !
 ! Z70   R(70,-3)               -4.0595         Frozen                          !
 ! X71   R(71,-1)               -1.9665         Frozen                          !
 ! Y71   R(71,-2)               -2.9019         Frozen                          !
 ! Z71   R(71,-3)                3.9616         Frozen                          !
 ! X72   R(72,-1)               -2.7044         Frozen                          !
 ! Y72   R(72,-2)               -2.5216         Frozen                          !
 ! Z72   R(72,-3)                4.4473         Frozen                          !
 ! X73   R(73,-1)               -1.5218         Frozen                          !
 ! Y73   R(73,-2)               -3.5073         Frozen                          !
 ! Z73   R(73,-3)                4.5623         Frozen                          !
 ! X74   R(74,-1)               -4.866          Frozen                          !
 ! Y74   R(74,-2)                6.0008         Frozen                          !
 ! Z74   R(74,-3)                0.3893         Frozen                          !
 ! X75   R(75,-1)               -5.1296         Frozen                          !
 ! Y75   R(75,-2)                6.4398         Frozen                          !
 ! Z75   R(75,-3)               -0.4249         Frozen                          !
 ! X76   R(76,-1)               -4.0735         Frozen                          !
 ! Y76   R(76,-2)                6.4438         Frozen                          !
 ! Z76   R(76,-3)                0.7104         Frozen                          !
 ! X77   R(77,-1)               -8.3645         Frozen                          !
 ! Y77   R(77,-2)               -1.9788         Frozen                          !
 ! Z77   R(77,-3)               -2.0739         Frozen                          !
 ! X78   R(78,-1)               -7.5356         Frozen                          !
 ! Y78   R(78,-2)               -1.565          Frozen                          !
 ! Z78   R(78,-3)               -2.3346         Frozen                          !
 ! X79   R(79,-1)               -8.1687         Frozen                          !
 ! Y79   R(79,-2)               -2.8993         Frozen                          !
 ! Z79   R(79,-3)               -1.8743         Frozen                          !
 ! X80   R(80,-1)               -4.8328         Frozen                          !
 ! Y80   R(80,-2)                3.1901         Frozen                          !
 ! Z80   R(80,-3)                0.5682         Frozen                          !
 ! X81   R(81,-1)               -4.9181         Frozen                          !
 ! Y81   R(81,-2)                4.1665         Frozen                          !
 ! Z81   R(81,-3)                0.5781         Frozen                          !
 ! X82   R(82,-1)               -5.5301         Frozen                          !
 ! Y82   R(82,-2)                2.8249         Frozen                          !
 ! Z82   R(82,-3)                1.1514         Frozen                          !
 ! X83   R(83,-1)                8.1771         Frozen                          !
 ! Y83   R(83,-2)               -3.4434         Frozen                          !
 ! Z83   R(83,-3)                0.6647         Frozen                          !
 ! X84   R(84,-1)                8.0696         Frozen                          !
 ! Y84   R(84,-2)               -3.694          Frozen                          !
 ! Z84   R(84,-3)                1.5883         Frozen                          !
 ! X85   R(85,-1)                8.36           Frozen                          !
 ! Y85   R(85,-2)               -4.2491         Frozen                          !
 ! Z85   R(85,-3)                0.1708         Frozen                          !
 ! X86   R(86,-1)                4.6667         Frozen                          !
 ! Y86   R(86,-2)               -5.0693         Frozen                          !
 ! Z86   R(86,-3)               -3.319          Frozen                          !
 ! X87   R(87,-1)                5.3277         Frozen                          !
 ! Y87   R(87,-2)               -4.7683         Frozen                          !
 ! Z87   R(87,-3)               -3.9499         Frozen                          !
 ! X88   R(88,-1)                4.0389         Frozen                          !
 ! Y88   R(88,-2)               -5.613          Frozen                          !
 ! Z88   R(88,-3)               -3.8041         Frozen                          !
 ! X89   R(89,-1)                4.537          Frozen                          !
 ! Y89   R(89,-2)                1.8519         Frozen                          !
 ! Z89   R(89,-3)                4.8608         Frozen                          !
 ! X90   R(90,-1)                4.2868         Frozen                          !
 ! Y90   R(90,-2)                2.766          Frozen                          !
 ! Z90   R(90,-3)                4.6944         Frozen                          !
 ! X91   R(91,-1)                5.1427         Frozen                          !
 ! Y91   R(91,-2)                1.5914         Frozen                          !
 ! Z91   R(91,-3)                4.1592         Frozen                          !
 ! X92   R(92,-1)                6.7251         Frozen                          !
 ! Y92   R(92,-2)                3.4463         Frozen                          !
 ! Z92   R(92,-3)               -3.7944         Frozen                          !
 ! X93   R(93,-1)                6.0109         Frozen                          !
 ! Y93   R(93,-2)                3.673          Frozen                          !
 ! Z93   R(93,-3)               -4.3992         Frozen                          !
 ! X94   R(94,-1)                6.4013         Frozen                          !
 ! Y94   R(94,-2)                2.7243         Frozen                          !
 ! Z94   R(94,-3)               -3.2446         Frozen                          !
 ! X95   R(95,-1)               -0.1859         Frozen                          !
 ! Y95   R(95,-2)               -7.7869         Frozen                          !
 ! Z95   R(95,-3)                2.6869         Frozen                          !
 ! X96   R(96,-1)                0.3441         Frozen                          !
 ! Y96   R(96,-2)               -7.6795         Frozen                          !
 ! Z96   R(96,-3)                3.4829         Frozen                          !
 ! X97   R(97,-1)               -1.0508         Frozen                          !
 ! Y97   R(97,-2)               -8.1097         Frozen                          !
 ! Z97   R(97,-3)                2.9599         Frozen                          !
 ! X98   R(98,-1)                2.834          Frozen                          !
 ! Y98   R(98,-2)                7.9808         Frozen                          !
 ! Z98   R(98,-3)                1.3952         Frozen                          !
 ! X99   R(99,-1)                2.7586         Frozen                          !
 ! Y99   R(99,-2)                8.9347         Frozen                          !
 ! Z99   R(99,-3)                1.299          Frozen                          !
 ! X100  R(100,-1)               2.0785         Frozen                          !
 ! Y100  R(100,-2)               7.6851         Frozen                          !
 ! Z100  R(100,-3)               1.9131         Frozen                          !
 ! X101  R(101,-1)              -2.7914         Frozen                          !
 ! Y101  R(101,-2)              -2.5251         Frozen                          !
 ! Z101  R(101,-3)              -5.6907         Frozen                          !
 ! X102  R(102,-1)              -2.7942         Frozen                          !
 ! Y102  R(102,-2)              -1.6431         Frozen                          !
 ! Z102  R(102,-3)              -6.0756         Frozen                          !
 ! X103  R(103,-1)              -3.6639         Frozen                          !
 ! Y103  R(103,-2)              -2.6707         Frozen                          !
 ! Z103  R(103,-3)              -5.3117         Frozen                          !
 ! X104  R(104,-1)              -1.5979         Frozen                          !
 ! Y104  R(104,-2)              -0.1275         Frozen                          !
 ! Z104  R(104,-3)               8.3121         Frozen                          !
 ! X105  R(105,-1)              -1.2165         Frozen                          !
 ! Y105  R(105,-2)               0.6434         Frozen                          !
 ! Z105  R(105,-3)               7.879          Frozen                          !
 ! X106  R(106,-1)              -0.8996         Frozen                          !
 ! Y106  R(106,-2)              -0.7875         Frozen                          !
 ! Z106  R(106,-3)               8.3719         Frozen                          !
 ! X107  R(107,-1)              -0.9662         Frozen                          !
 ! Y107  R(107,-2)               8.9938         Frozen                          !
 ! Z107  R(107,-3)              -1.6418         Frozen                          !
 ! X108  R(108,-1)              -0.6702         Frozen                          !
 ! Y108  R(108,-2)               9.6296         Frozen                          !
 ! Z108  R(108,-3)              -2.2998         Frozen                          !
 ! X109  R(109,-1)              -0.6256         Frozen                          !
 ! Y109  R(109,-2)               8.1331         Frozen                          !
 ! Z109  R(109,-3)              -1.9085         Frozen                          !
 ! X110  R(110,-1)              -7.4997         Frozen                          !
 ! Y110  R(110,-2)              -4.6784         Frozen                          !
 ! Z110  R(110,-3)              -1.5176         Frozen                          !
 ! X111  R(111,-1)              -7.5594         Frozen                          !
 ! Y111  R(111,-2)              -5.1126         Frozen                          !
 ! Z111  R(111,-3)              -0.6609         Frozen                          !
 ! X112  R(112,-1)              -7.3107         Frozen                          !
 ! Y112  R(112,-2)              -5.3604         Frozen                          !
 ! Z112  R(112,-3)              -2.1698         Frozen                          !
 ! X113  R(113,-1)              -6.8386         Frozen                          !
 ! Y113  R(113,-2)               1.9845         Frozen                          !
 ! Z113  R(113,-3)               2.2165         Frozen                          !
 ! X114  R(114,-1)              -6.508          Frozen                          !
 ! Y114  R(114,-2)               1.5243         Frozen                          !
 ! Z114  R(114,-3)               2.9945         Frozen                          !
 ! X115  R(115,-1)              -7.4131         Frozen                          !
 ! Y115  R(115,-2)               1.3692         Frozen                          !
 ! Z115  R(115,-3)               1.7494         Frozen                          !
 ! X116  R(116,-1)              -5.1406         Frozen                          !
 ! Y116  R(116,-2)               2.6708         Frozen                          !
 ! Z116  R(116,-3)              -2.1642         Frozen                          !
 ! X117  R(117,-1)              -6.0826         Frozen                          !
 ! Y117  R(117,-2)               2.7428         Frozen                          !
 ! Z117  R(117,-3)              -2.3371         Frozen                          !
 ! X118  R(118,-1)              -5.0304         Frozen                          !
 ! Y118  R(118,-2)               2.7905         Frozen                          !
 ! Z118  R(118,-3)              -1.2025         Frozen                          !
 ! R1    R(1,2)                  1.4421         estimate D2E/DX2                !
 ! R2    R(1,12)                 1.445          estimate D2E/DX2                !
 ! R3    R(1,22)                 1.441          estimate D2E/DX2                !
 ! R4    R(2,3)                  1.5355         estimate D2E/DX2                !
 ! R5    R(2,4)                  1.5845         estimate D2E/DX2                !
 ! R6    R(2,5)                  1.0991         estimate D2E/DX2                !
 ! R7    R(3,6)                  1.5242         estimate D2E/DX2                !
 ! R8    R(3,7)                  1.1004         estimate D2E/DX2                !
 ! R9    R(3,8)                  1.1022         estimate D2E/DX2                !
 ! R10   R(4,32)                 2.0064         Frozen                          !
 ! R11   R(4,33)                 1.9462         estimate D2E/DX2                !
 ! R12   R(4,42)                 1.9044         estimate D2E/DX2                !
 ! R13   R(6,9)                  1.0987         estimate D2E/DX2                !
 ! R14   R(6,10)                 1.1007         estimate D2E/DX2                !
 ! R15   R(6,11)                 1.1004         estimate D2E/DX2                !
 ! R16   R(8,68)                 2.5072         estimate D2E/DX2                !
 ! R17   R(9,59)                 2.4499         estimate D2E/DX2                !
 ! R18   R(12,13)                1.535          estimate D2E/DX2                !
 ! R19   R(12,14)                1.1013         estimate D2E/DX2                !
 ! R20   R(12,15)                1.0989         estimate D2E/DX2                !
 ! R21   R(13,16)                1.5246         estimate D2E/DX2                !
 ! R22   R(13,17)                1.0998         estimate D2E/DX2                !
 ! R23   R(13,18)                1.1001         estimate D2E/DX2                !
 ! R24   R(16,19)                1.0987         estimate D2E/DX2                !
 ! R25   R(16,20)                1.0998         estimate D2E/DX2                !
 ! R26   R(16,21)                1.1011         estimate D2E/DX2                !
 ! R27   R(17,62)                2.6173         estimate D2E/DX2                !
 ! R28   R(18,53)                2.4349         estimate D2E/DX2                !
 ! R29   R(20,54)                2.4865         estimate D2E/DX2                !
 ! R30   R(21,56)                3.6421         estimate D2E/DX2                !
 ! R31   R(22,23)                1.542          estimate D2E/DX2                !
 ! R32   R(22,24)                1.1026         estimate D2E/DX2                !
 ! R33   R(22,25)                1.1003         estimate D2E/DX2                !
 ! R34   R(23,26)                1.5247         estimate D2E/DX2                !
 ! R35   R(23,27)                1.1016         estimate D2E/DX2                !
 ! R36   R(23,28)                1.1012         estimate D2E/DX2                !
 ! R37   R(25,71)                2.4818         estimate D2E/DX2                !
 ! R38   R(26,29)                1.0983         estimate D2E/DX2                !
 ! R39   R(26,30)                1.1001         estimate D2E/DX2                !
 ! R40   R(26,31)                1.0996         estimate D2E/DX2                !
 ! R41   R(28,62)                2.6476         estimate D2E/DX2                !
 ! R42   R(29,110)               4.1597         estimate D2E/DX2                !
 ! R43   R(29,111)               4.1907         estimate D2E/DX2                !
 ! R44   R(31,78)                4.2673         estimate D2E/DX2                !
 ! R45   R(32,33)                0.9755         estimate D2E/DX2                !
 ! R46   R(32,34)                0.9785         estimate D2E/DX2                !
 ! R47   R(32,36)                1.832          estimate D2E/DX2                !
 ! R48   R(33,38)                1.9243         estimate D2E/DX2                !
 ! R49   R(34,44)                1.821          estimate D2E/DX2                !
 ! R50   R(35,36)                0.9766         estimate D2E/DX2                !
 ! R51   R(35,37)                0.9653         estimate D2E/DX2                !
 ! R52   R(35,39)                1.8339         estimate D2E/DX2                !
 ! R53   R(37,105)               4.6922         estimate D2E/DX2                !
 ! R54   R(38,39)                0.9774         estimate D2E/DX2                !
 ! R55   R(38,40)                0.9827         estimate D2E/DX2                !
 ! R56   R(38,49)                1.8123         estimate D2E/DX2                !
 ! R57   R(40,80)                1.7808         estimate D2E/DX2                !
 ! R58   R(41,42)                0.9683         estimate D2E/DX2                !
 ! R59   R(41,43)                0.9736         estimate D2E/DX2                !
 ! R60   R(43,44)                1.9042         estimate D2E/DX2                !
 ! R61   R(43,94)                4.6925         estimate D2E/DX2                !
 ! R62   R(44,45)                0.9904         estimate D2E/DX2                !
 ! R63   R(44,46)                0.9657         estimate D2E/DX2                !
 ! R64   R(45,65)                1.7211         estimate D2E/DX2                !
 ! R65   R(46,93)                4.7815         estimate D2E/DX2                !
 ! R66   R(46,109)               4.7811         estimate D2E/DX2                !
 ! R67   R(47,48)                0.9725         estimate D2E/DX2                !
 ! R68   R(47,49)                0.9763         estimate D2E/DX2                !
 ! R69   R(48,78)                4.2938         estimate D2E/DX2                !
 ! R70   R(50,51)                0.9623         estimate D2E/DX2                !
 ! R71   R(50,52)                0.9617         estimate D2E/DX2                !
 ! R72   R(50,54)                1.9193         estimate D2E/DX2                !
 ! R73   R(52,83)                1.8616         estimate D2E/DX2                !
 ! R74   R(53,54)                0.9685         estimate D2E/DX2                !
 ! R75   R(53,55)                0.9609         estimate D2E/DX2                !
 ! R76   R(55,86)                1.9845         estimate D2E/DX2                !
 ! R77   R(56,57)                0.9625         estimate D2E/DX2                !
 ! R78   R(56,58)                0.9611         estimate D2E/DX2                !
 ! R79   R(56,105)               4.727          estimate D2E/DX2                !
 ! R80   R(56,106)               4.6527         estimate D2E/DX2                !
 ! R81   R(57,89)                1.899          estimate D2E/DX2                !
 ! R82   R(58,106)               4.7391         estimate D2E/DX2                !
 ! R83   R(59,60)                0.9615         estimate D2E/DX2                !
 ! R84   R(59,61)                0.9619         estimate D2E/DX2                !
 ! R85   R(59,93)                4.6804         estimate D2E/DX2                !
 ! R86   R(62,63)                0.9614         estimate D2E/DX2                !
 ! R87   R(62,64)                0.9613         estimate D2E/DX2                !
 ! R88   R(63,95)                1.916          estimate D2E/DX2                !
 ! R89   R(65,66)                0.9622         estimate D2E/DX2                !
 ! R90   R(65,67)                0.9623         estimate D2E/DX2                !
 ! R91   R(66,98)                1.8519         estimate D2E/DX2                !
 ! R92   R(66,109)               4.6281         estimate D2E/DX2                !
 ! R93   R(67,92)                4.6871         estimate D2E/DX2                !
 ! R94   R(67,93)                4.7417         estimate D2E/DX2                !
 ! R95   R(68,69)                0.9617         estimate D2E/DX2                !
 ! R96   R(68,70)                0.9615         estimate D2E/DX2                !
 ! R97   R(69,101)               1.9            estimate D2E/DX2                !
 ! R98   R(71,72)                0.9618         estimate D2E/DX2                !
 ! R99   R(71,73)                0.9618         estimate D2E/DX2                !
 ! R100  R(72,104)               4.679          estimate D2E/DX2                !
 ! R101  R(74,75)                0.9619         estimate D2E/DX2                !
 ! R102  R(74,76)                0.963          estimate D2E/DX2                !
 ! R103  R(74,81)                1.8447         estimate D2E/DX2                !
 ! R104  R(76,107)               4.6573         estimate D2E/DX2                !
 ! R105  R(76,109)               4.6476         estimate D2E/DX2                !
 ! R106  R(77,78)                0.9624         estimate D2E/DX2                !
 ! R107  R(77,79)                0.962          estimate D2E/DX2                !
 ! R108  R(79,110)               1.9339         estimate D2E/DX2                !
 ! R109  R(80,81)                0.9802         estimate D2E/DX2                !
 ! R110  R(80,82)                0.9797         estimate D2E/DX2                !
 ! R111  R(80,118)               1.826          estimate D2E/DX2                !
 ! R112  R(82,113)               1.8849         estimate D2E/DX2                !
 ! R113  R(83,84)                0.9629         estimate D2E/DX2                !
 ! R114  R(83,85)                0.9625         estimate D2E/DX2                !
 ! R115  R(86,87)                0.962          estimate D2E/DX2                !
 ! R116  R(86,88)                0.9618         estimate D2E/DX2                !
 ! R117  R(89,90)                0.9622         estimate D2E/DX2                !
 ! R118  R(89,91)                0.9628         estimate D2E/DX2                !
 ! R119  R(92,93)                0.9629         estimate D2E/DX2                !
 ! R120  R(92,94)                0.9635         estimate D2E/DX2                !
 ! R121  R(95,96)                0.9623         estimate D2E/DX2                !
 ! R122  R(95,97)                0.9627         estimate D2E/DX2                !
 ! R123  R(98,99)                0.9617         estimate D2E/DX2                !
 ! R124  R(98,100)               0.9626         estimate D2E/DX2                !
 ! R125  R(99,107)               4.7461         estimate D2E/DX2                !
 ! R126  R(101,102)              0.9623         estimate D2E/DX2                !
 ! R127  R(101,103)              0.9623         estimate D2E/DX2                !
 ! R128  R(104,105)              0.963          estimate D2E/DX2                !
 ! R129  R(104,106)              0.9627         estimate D2E/DX2                !
 ! R130  R(107,108)              0.9617         estimate D2E/DX2                !
 ! R131  R(107,109)              0.9633         estimate D2E/DX2                !
 ! R132  R(110,111)              0.9623         estimate D2E/DX2                !
 ! R133  R(110,112)              0.9625         estimate D2E/DX2                !
 ! R134  R(113,114)              0.9625         estimate D2E/DX2                !
 ! R135  R(113,115)              0.9628         estimate D2E/DX2                !
 ! R136  R(116,117)              0.9605         estimate D2E/DX2                !
 ! R137  R(116,118)              0.9754         estimate D2E/DX2                !
 ! A1    A(2,1,12)             119.6974         estimate D2E/DX2                !
 ! A2    A(2,1,22)             119.401          estimate D2E/DX2                !
 ! A3    A(12,1,22)            120.8934         estimate D2E/DX2                !
 ! A4    A(1,2,3)              113.3513         estimate D2E/DX2                !
 ! A5    A(1,2,4)              104.6783         estimate D2E/DX2                !
 ! A6    A(1,2,5)              108.3539         estimate D2E/DX2                !
 ! A7    A(3,2,4)              114.5044         estimate D2E/DX2                !
 ! A8    A(3,2,5)              111.4494         estimate D2E/DX2                !
 ! A9    A(4,2,5)              103.8016         estimate D2E/DX2                !
 ! A10   A(2,3,6)              109.3804         estimate D2E/DX2                !
 ! A11   A(2,3,7)              110.0806         estimate D2E/DX2                !
 ! A12   A(2,3,8)              108.9921         estimate D2E/DX2                !
 ! A13   A(6,3,7)              109.9835         estimate D2E/DX2                !
 ! A14   A(6,3,8)              110.8044         estimate D2E/DX2                !
 ! A15   A(7,3,8)              107.5765         estimate D2E/DX2                !
 ! A16   A(2,4,33)             138.8259         estimate D2E/DX2                !
 ! A17   A(2,4,42)             126.8449         estimate D2E/DX2                !
 ! A18   A(32,4,42)             64.802          estimate D2E/DX2                !
 ! A19   A(33,4,42)             93.3214         estimate D2E/DX2                !
 ! A20   A(3,6,9)              111.4292         estimate D2E/DX2                !
 ! A21   A(3,6,10)             110.9687         estimate D2E/DX2                !
 ! A22   A(3,6,11)             109.7225         estimate D2E/DX2                !
 ! A23   A(9,6,10)             108.1619         estimate D2E/DX2                !
 ! A24   A(9,6,11)             108.3766         estimate D2E/DX2                !
 ! A25   A(10,6,11)            108.0796         estimate D2E/DX2                !
 ! A26   A(1,12,13)            112.6325         estimate D2E/DX2                !
 ! A27   A(1,12,14)            106.2642         estimate D2E/DX2                !
 ! A28   A(1,12,15)            107.5722         estimate D2E/DX2                !
 ! A29   A(13,12,14)           110.2504         estimate D2E/DX2                !
 ! A30   A(13,12,15)           111.0734         estimate D2E/DX2                !
 ! A31   A(14,12,15)           108.8547         estimate D2E/DX2                !
 ! A32   A(12,13,16)           109.8945         estimate D2E/DX2                !
 ! A33   A(12,13,17)           110.2192         estimate D2E/DX2                !
 ! A34   A(12,13,18)           109.6392         estimate D2E/DX2                !
 ! A35   A(16,13,17)           110.7006         estimate D2E/DX2                !
 ! A36   A(16,13,18)           108.5019         estimate D2E/DX2                !
 ! A37   A(17,13,18)           107.8379         estimate D2E/DX2                !
 ! A38   A(13,16,19)           109.8631         estimate D2E/DX2                !
 ! A39   A(13,16,20)           110.9393         estimate D2E/DX2                !
 ! A40   A(13,16,21)           111.6337         estimate D2E/DX2                !
 ! A41   A(19,16,20)           107.5358         estimate D2E/DX2                !
 ! A42   A(19,16,21)           108.248          estimate D2E/DX2                !
 ! A43   A(20,16,21)           108.4915         estimate D2E/DX2                !
 ! A44   A(13,17,62)           130.7126         estimate D2E/DX2                !
 ! A45   A(13,18,53)           135.0045         estimate D2E/DX2                !
 ! A46   A(16,20,54)           125.5018         estimate D2E/DX2                !
 ! A47   A(16,21,56)           159.145          estimate D2E/DX2                !
 ! A48   A(1,22,23)            111.8923         estimate D2E/DX2                !
 ! A49   A(1,22,24)            106.4908         estimate D2E/DX2                !
 ! A50   A(1,22,25)            109.2561         estimate D2E/DX2                !
 ! A51   A(23,22,24)           108.5122         estimate D2E/DX2                !
 ! A52   A(23,22,25)           110.7176         estimate D2E/DX2                !
 ! A53   A(24,22,25)           109.8719         estimate D2E/DX2                !
 ! A54   A(22,23,26)           109.0565         estimate D2E/DX2                !
 ! A55   A(22,23,27)           109.99           estimate D2E/DX2                !
 ! A56   A(22,23,28)           109.3524         estimate D2E/DX2                !
 ! A57   A(26,23,27)           110.5454         estimate D2E/DX2                !
 ! A58   A(26,23,28)           110.5777         estimate D2E/DX2                !
 ! A59   A(27,23,28)           107.2988         estimate D2E/DX2                !
 ! A60   A(22,25,71)           162.0938         estimate D2E/DX2                !
 ! A61   A(23,26,29)           110.8761         estimate D2E/DX2                !
 ! A62   A(23,26,30)           110.5877         estimate D2E/DX2                !
 ! A63   A(23,26,31)           110.2882         estimate D2E/DX2                !
 ! A64   A(29,26,30)           108.2069         estimate D2E/DX2                !
 ! A65   A(29,26,31)           108.2514         estimate D2E/DX2                !
 ! A66   A(30,26,31)           108.5498         estimate D2E/DX2                !
 ! A67   A(26,29,110)          120.5046         estimate D2E/DX2                !
 ! A68   A(26,29,111)          118.6689         estimate D2E/DX2                !
 ! A69   A(26,31,78)           140.3468         estimate D2E/DX2                !
 ! A70   A(4,32,34)             94.3137         estimate D2E/DX2                !
 ! A71   A(4,32,36)             71.1564         estimate D2E/DX2                !
 ! A72   A(33,32,34)           107.7611         estimate D2E/DX2                !
 ! A73   A(33,32,36)            91.0298         estimate D2E/DX2                !
 ! A74   A(34,32,36)           151.863          estimate D2E/DX2                !
 ! A75   A(4,33,38)             90.2726         estimate D2E/DX2                !
 ! A76   A(32,33,38)           147.6155         estimate D2E/DX2                !
 ! A77   A(36,35,37)           105.7609         estimate D2E/DX2                !
 ! A78   A(36,35,39)            89.0177         estimate D2E/DX2                !
 ! A79   A(37,35,39)           121.2992         estimate D2E/DX2                !
 ! A80   A(32,36,35)           148.3731         estimate D2E/DX2                !
 ! A81   A(33,38,39)            86.42           estimate D2E/DX2                !
 ! A82   A(33,38,40)           124.2851         estimate D2E/DX2                !
 ! A83   A(33,38,49)           130.1708         estimate D2E/DX2                !
 ! A84   A(39,38,40)           107.2469         estimate D2E/DX2                !
 ! A85   A(39,38,49)           112.8134         estimate D2E/DX2                !
 ! A86   A(40,38,49)            94.5044         estimate D2E/DX2                !
 ! A87   A(35,39,38)           151.1908         estimate D2E/DX2                !
 ! A88   A(38,40,80)           163.9154         estimate D2E/DX2                !
 ! A89   A(42,41,43)           100.5021         estimate D2E/DX2                !
 ! A90   A(4,42,41)            106.2001         estimate D2E/DX2                !
 ! A91   A(41,43,44)           152.7955         estimate D2E/DX2                !
 ! A92   A(41,43,94)           121.4986         estimate D2E/DX2                !
 ! A93   A(44,43,94)            85.6993         estimate D2E/DX2                !
 ! A94   A(34,44,43)            76.8228         estimate D2E/DX2                !
 ! A95   A(34,44,45)           122.2854         estimate D2E/DX2                !
 ! A96   A(34,44,46)           112.3763         estimate D2E/DX2                !
 ! A97   A(43,44,45)           122.5858         estimate D2E/DX2                !
 ! A98   A(43,44,46)           116.9004         estimate D2E/DX2                !
 ! A99   A(45,44,46)           104.5912         estimate D2E/DX2                !
 ! A100  A(44,46,93)           104.631          estimate D2E/DX2                !
 ! A101  A(44,46,109)          101.72           estimate D2E/DX2                !
 ! A102  A(93,46,109)          122.2773         estimate D2E/DX2                !
 ! A103  A(48,47,49)           102.5105         estimate D2E/DX2                !
 ! A104  A(47,48,78)           100.3661         estimate D2E/DX2                !
 ! A105  A(51,50,52)           107.3028         estimate D2E/DX2                !
 ! A106  A(51,50,54)           120.0081         estimate D2E/DX2                !
 ! A107  A(52,50,54)           129.2508         estimate D2E/DX2                !
 ! A108  A(18,53,54)           111.1113         estimate D2E/DX2                !
 ! A109  A(18,53,55)           128.1992         estimate D2E/DX2                !
 ! A110  A(54,53,55)           106.3195         estimate D2E/DX2                !
 ! A111  A(20,54,50)            80.5744         estimate D2E/DX2                !
 ! A112  A(20,54,53)           102.9298         estimate D2E/DX2                !
 ! A113  A(21,56,57)           105.1289         estimate D2E/DX2                !
 ! A114  A(21,56,58)           110.0494         estimate D2E/DX2                !
 ! A115  A(21,56,105)          117.8753         estimate D2E/DX2                !
 ! A116  A(21,56,106)          111.8891         estimate D2E/DX2                !
 ! A117  A(57,56,58)           107.1538         estimate D2E/DX2                !
 ! A118  A(57,56,105)          113.394          estimate D2E/DX2                !
 ! A119  A(57,56,106)          131.0471         estimate D2E/DX2                !
 ! A120  A(58,56,105)          102.8577         estimate D2E/DX2                !
 ! A121  A(105,56,106)          18.9544         estimate D2E/DX2                !
 ! A122  A(9,59,60)            120.4015         estimate D2E/DX2                !
 ! A123  A(9,59,61)            118.9611         estimate D2E/DX2                !
 ! A124  A(9,59,93)             95.7101         estimate D2E/DX2                !
 ! A125  A(60,59,61)           107.2126         estimate D2E/DX2                !
 ! A126  A(60,59,93)           118.5573         estimate D2E/DX2                !
 ! A127  A(61,59,93)            92.6318         estimate D2E/DX2                !
 ! A128  A(17,62,28)            51.6019         estimate D2E/DX2                !
 ! A129  A(17,62,63)           118.0066         estimate D2E/DX2                !
 ! A130  A(17,62,64)           128.4758         estimate D2E/DX2                !
 ! A131  A(28,62,63)           133.3184         estimate D2E/DX2                !
 ! A132  A(28,62,64)           111.3286         estimate D2E/DX2                !
 ! A133  A(63,62,64)           106.8563         estimate D2E/DX2                !
 ! A134  A(45,65,66)           114.9911         estimate D2E/DX2                !
 ! A135  A(45,65,67)           115.6466         estimate D2E/DX2                !
 ! A136  A(66,65,67)           107.3257         estimate D2E/DX2                !
 ! A137  A(65,66,109)           96.1778         estimate D2E/DX2                !
 ! A138  A(98,66,109)           83.4953         estimate D2E/DX2                !
 ! A139  A(65,67,92)           117.2525         estimate D2E/DX2                !
 ! A140  A(65,67,93)           106.7615         estimate D2E/DX2                !
 ! A141  A(8,68,69)            123.3624         estimate D2E/DX2                !
 ! A142  A(8,68,70)            117.1227         estimate D2E/DX2                !
 ! A143  A(69,68,70)           106.8564         estimate D2E/DX2                !
 ! A144  A(25,71,72)           116.4406         estimate D2E/DX2                !
 ! A145  A(25,71,73)           135.3099         estimate D2E/DX2                !
 ! A146  A(72,71,73)           106.7535         estimate D2E/DX2                !
 ! A147  A(71,72,104)          115.9761         estimate D2E/DX2                !
 ! A148  A(75,74,76)           107.3239         estimate D2E/DX2                !
 ! A149  A(75,74,81)           122.1921         estimate D2E/DX2                !
 ! A150  A(76,74,81)           116.5221         estimate D2E/DX2                !
 ! A151  A(74,76,107)          129.2391         estimate D2E/DX2                !
 ! A152  A(74,76,109)          126.1466         estimate D2E/DX2                !
 ! A153  A(78,77,79)           106.9968         estimate D2E/DX2                !
 ! A154  A(31,78,48)            50.9074         estimate D2E/DX2                !
 ! A155  A(31,78,77)           121.2523         estimate D2E/DX2                !
 ! A156  A(48,78,77)           156.0375         estimate D2E/DX2                !
 ! A157  A(40,80,81)           115.6384         estimate D2E/DX2                !
 ! A158  A(40,80,82)           121.0705         estimate D2E/DX2                !
 ! A159  A(40,80,118)           93.0518         estimate D2E/DX2                !
 ! A160  A(81,80,82)           107.6609         estimate D2E/DX2                !
 ! A161  A(81,80,118)          102.6157         estimate D2E/DX2                !
 ! A162  A(82,80,118)          114.7485         estimate D2E/DX2                !
 ! A163  A(52,83,84)           114.5712         estimate D2E/DX2                !
 ! A164  A(52,83,85)           114.696          estimate D2E/DX2                !
 ! A165  A(84,83,85)           107.1884         estimate D2E/DX2                !
 ! A166  A(55,86,87)           117.6222         estimate D2E/DX2                !
 ! A167  A(55,86,88)           117.3734         estimate D2E/DX2                !
 ! A168  A(87,86,88)           107.1363         estimate D2E/DX2                !
 ! A169  A(57,89,90)           123.9397         estimate D2E/DX2                !
 ! A170  A(57,89,91)           113.6898         estimate D2E/DX2                !
 ! A171  A(90,89,91)           107.1293         estimate D2E/DX2                !
 ! A172  A(67,92,94)            84.5355         estimate D2E/DX2                !
 ! A173  A(93,92,94)           106.5963         estimate D2E/DX2                !
 ! A174  A(46,93,59)            72.6199         estimate D2E/DX2                !
 ! A175  A(46,93,67)            44.9282         estimate D2E/DX2                !
 ! A176  A(46,93,92)           108.981          estimate D2E/DX2                !
 ! A177  A(59,93,67)           116.088          estimate D2E/DX2                !
 ! A178  A(59,93,92)           114.5125         estimate D2E/DX2                !
 ! A179  A(43,94,92)           132.7635         estimate D2E/DX2                !
 ! A180  A(63,95,96)           116.8768         estimate D2E/DX2                !
 ! A181  A(63,95,97)           122.0382         estimate D2E/DX2                !
 ! A182  A(96,95,97)           107.3119         estimate D2E/DX2                !
 ! A183  A(66,98,99)           122.0702         estimate D2E/DX2                !
 ! A184  A(66,98,100)          117.6108         estimate D2E/DX2                !
 ! A185  A(99,98,100)          107.2798         estimate D2E/DX2                !
 ! A186  A(98,99,107)           97.8096         estimate D2E/DX2                !
 ! A187  A(69,101,102)         116.3914         estimate D2E/DX2                !
 ! A188  A(69,101,103)         110.4333         estimate D2E/DX2                !
 ! A189  A(102,101,103)        107.0699         estimate D2E/DX2                !
 ! A190  A(72,104,105)          97.5753         estimate D2E/DX2                !
 ! A191  A(72,104,106)          82.6502         estimate D2E/DX2                !
 ! A192  A(105,104,106)        106.8186         estimate D2E/DX2                !
 ! A193  A(37,105,56)           57.3522         estimate D2E/DX2                !
 ! A194  A(37,105,104)         124.825          estimate D2E/DX2                !
 ! A195  A(56,105,104)         113.0942         estimate D2E/DX2                !
 ! A196  A(56,106,104)         118.4582         estimate D2E/DX2                !
 ! A197  A(58,106,104)         127.9756         estimate D2E/DX2                !
 ! A198  A(76,107,99)          101.7641         estimate D2E/DX2                !
 ! A199  A(76,107,108)         155.9067         estimate D2E/DX2                !
 ! A200  A(99,107,108)         100.9915         estimate D2E/DX2                !
 ! A201  A(99,107,109)          83.2799         estimate D2E/DX2                !
 ! A202  A(108,107,109)        107.0051         estimate D2E/DX2                !
 ! A203  A(46,109,66)           46.1126         estimate D2E/DX2                !
 ! A204  A(46,109,76)           95.3807         estimate D2E/DX2                !
 ! A205  A(46,109,107)         160.6914         estimate D2E/DX2                !
 ! A206  A(66,109,76)          108.3577         estimate D2E/DX2                !
 ! A207  A(66,109,107)         115.606          estimate D2E/DX2                !
 ! A208  A(29,110,79)          102.8275         estimate D2E/DX2                !
 ! A209  A(29,110,112)          95.5368         estimate D2E/DX2                !
[...]
  Beta virt. eigenvalues --    1.38638   1.38995   1.39012   1.39072   1.39143
  Beta virt. eigenvalues --    1.39171   1.39298   1.39810   1.39920   1.40362
  Beta virt. eigenvalues --    1.40680   1.40822   1.40951   1.41149   1.41213
  Beta virt. eigenvalues --    1.41401   1.41699   1.42146   1.42270   1.42316
  Beta virt. eigenvalues --    1.42716   1.43833   1.43870   1.44302   1.45093
  Beta virt. eigenvalues --    1.45622   1.46563   1.47148   1.47293   1.47668
  Beta virt. eigenvalues --    1.47803   1.48018   1.48234   1.48429   1.48643
  Beta virt. eigenvalues --    1.48711   1.48994   1.49117   1.49203   1.49398
  Beta virt. eigenvalues --    1.49729   1.50227   1.51745   1.52071   1.53297
  Beta virt. eigenvalues --    1.53888   1.54284   1.55835   1.56028   1.56118
  Beta virt. eigenvalues --    1.57339   1.57411   1.58068   1.58501   1.58656
  Beta virt. eigenvalues --    1.58896   1.59097   1.59511   1.59884   1.60041
  Beta virt. eigenvalues --    1.60500   1.60892   1.61025   1.61109   1.61172
  Beta virt. eigenvalues --    1.61470   1.61910   1.62462   1.62574   1.62615
  Beta virt. eigenvalues --    1.62868   1.63315   1.63698   1.64093   1.64505
  Beta virt. eigenvalues --    1.64771   1.64878   1.65798   1.65889   1.66126
  Beta virt. eigenvalues --    1.66487   1.66700   1.66754   1.67370   1.67610
  Beta virt. eigenvalues --    1.67816   1.68038   1.69150   1.69889   1.70160
  Beta virt. eigenvalues --    1.70328   1.71080   1.72015   1.72872   1.74052
  Beta virt. eigenvalues --    1.75861   1.78225   1.79298   1.79448   1.80422
  Beta virt. eigenvalues --    1.80570   1.80695   1.80822   1.80927   1.81096
  Beta virt. eigenvalues --    1.81104   1.81263   1.81338   1.81356   1.81428
  Beta virt. eigenvalues --    1.81441   1.81549   1.81563   1.81810   1.82166
  Beta virt. eigenvalues --    1.82441   1.82597   1.82606   1.82879   1.83042
  Beta virt. eigenvalues --    1.83360   1.83838   1.84382   1.84480   1.84868
  Beta virt. eigenvalues --    1.84904   1.85278   1.85481   1.85755   1.86358
  Beta virt. eigenvalues --    1.86753   1.87134   1.87241   1.87614   1.88272
  Beta virt. eigenvalues --    1.88358   1.88899   1.89913   1.90504   1.90834
  Beta virt. eigenvalues --    1.91476   1.91572   1.92578   1.92911   1.93412
  Beta virt. eigenvalues --    1.94602   1.95187   1.95708   1.96270   1.97406
  Beta virt. eigenvalues --    1.97948   1.98493   1.99176   2.00258   2.00782
  Beta virt. eigenvalues --    2.02164   2.03407   2.04117   2.04554   2.05244
  Beta virt. eigenvalues --    2.07531   2.08781   2.09101   2.10941   2.14150
  Beta virt. eigenvalues --    2.14688   2.15759   2.20996   2.23849   2.26904
  Beta virt. eigenvalues --    2.27528   2.27635   2.27713   2.27731   2.27857
  Beta virt. eigenvalues --    2.27888   2.27916   2.27955   2.28095   2.28295
  Beta virt. eigenvalues --    2.28596   2.29017   2.29042   2.29233   2.29254
  Beta virt. eigenvalues --    2.29277   2.29394   2.29500   2.29604   2.29692
  Beta virt. eigenvalues --    2.29745   2.30472   2.30717   2.30811   2.30875
  Beta virt. eigenvalues --    2.30993   2.31125   2.31193   2.31346   2.31523
  Beta virt. eigenvalues --    2.31789   2.32142   2.32153   2.32189   2.32238
  Beta virt. eigenvalues --    2.32349   2.32453   2.32486   2.32591   2.32665
  Beta virt. eigenvalues --    2.33760   2.35843   2.36814   2.37769   2.39077
  Beta virt. eigenvalues --    2.39170   2.40214   2.40947   2.41644   2.42204
  Beta virt. eigenvalues --    2.42778   2.42957   2.43171   2.43557   2.44136
  Beta virt. eigenvalues --    2.44841   2.45092   2.45819   2.45946   2.46571
  Beta virt. eigenvalues --    2.47002   2.47083   2.47636   2.48265   2.49012
  Beta virt. eigenvalues --    2.49406   2.49948   2.50665   2.51066   2.52937
  Beta virt. eigenvalues --    2.53244   2.55138   2.56296   2.59421   2.60401
  Beta virt. eigenvalues --    2.60800   2.61339   2.61721   2.62515   2.63146
  Beta virt. eigenvalues --    2.69742   2.70725   2.71999   2.76645   2.77010
  Beta virt. eigenvalues --    2.85349   2.86607   2.87429   2.88357   2.91318
  Beta virt. eigenvalues --    2.92210   2.92833   2.94816   2.95617   2.95774
  Beta virt. eigenvalues --    2.96444   2.97140   2.98483   2.98541   2.98610
  Beta virt. eigenvalues --    2.98675   2.98739   2.98810   2.98816   2.98842
  Beta virt. eigenvalues --    2.98896   2.98916   2.99325   2.99624   2.99898
  Beta virt. eigenvalues --    3.00025   3.00165   3.00568   3.00624   3.00674
  Beta virt. eigenvalues --    3.00707   3.00811   3.01552   3.01726   3.01836
  Beta virt. eigenvalues --    3.02150   3.02256   3.02421   3.02642   3.03402
  Beta virt. eigenvalues --    3.03674   3.03789   3.04146   3.04693   3.04877
  Beta virt. eigenvalues --    3.05216   3.05482   3.05623   3.05669   3.05793
  Beta virt. eigenvalues --    3.05875   3.05909   3.06050   3.06172   3.06261
  Beta virt. eigenvalues --    3.06579   3.07107   3.07269   3.07489   3.07533
  Beta virt. eigenvalues --    3.07701   3.07818   3.07839   3.07937   3.08024
  Beta virt. eigenvalues --    3.08324   3.08489   3.08707   3.08998   3.09249
  Beta virt. eigenvalues --    3.09325   3.09707   3.09807   3.10029   3.10720
  Beta virt. eigenvalues --    3.11754   3.13887   3.20141   3.21233   3.21342
  Beta virt. eigenvalues --    3.21578   3.21790   3.21808   3.21847   3.21865
  Beta virt. eigenvalues --    3.21978   3.22069   3.22207   3.22503   3.22624
  Beta virt. eigenvalues --    3.22810   3.22923   3.23000   3.23017   3.23120
  Beta virt. eigenvalues --    3.23249   3.23605   3.24183   3.24401   3.24454
  Beta virt. eigenvalues --    3.25072   3.25405   3.26282   3.26503   3.28077
  Beta virt. eigenvalues --    3.28088   3.29002   3.31172   3.53799   3.54685
  Beta virt. eigenvalues --    3.55082   3.55316   3.55369   3.55407   3.55460
  Beta virt. eigenvalues --    3.55808   3.56134   3.56147   3.56408   3.56638
  Beta virt. eigenvalues --    3.56841   3.57030   3.57123   3.57277   3.57588
  Beta virt. eigenvalues --    3.58558   3.59220   3.59638   3.59890   3.60094
  Beta virt. eigenvalues --    3.60221   3.60242   3.60444   3.60720   3.61501
  Beta virt. eigenvalues --    3.62532   3.62616   3.82524   3.82644   3.82787
  Beta virt. eigenvalues --    3.82803   3.82843   3.82938   3.83063   3.83170
  Beta virt. eigenvalues --    3.83236   3.83587   3.84037   3.84089   3.84243
  Beta virt. eigenvalues --    3.84254   3.84981   3.85437   3.86170   3.86491
  Beta virt. eigenvalues --    3.86859   3.86944   3.87066   3.87950   3.88458
  Beta virt. eigenvalues --    3.88538   3.91850   3.93272   3.94162   3.95589
  Beta virt. eigenvalues --    3.98739
          Condensed to atoms (all electrons):
          Atomic-Atomic Spin Densities.
 Mulliken charges and spin densities:
               1          2
     1  N   -0.151421   0.833619
     2  C    0.015660  -0.051428
     3  C   -0.095089   0.049378
     4  H    0.012883   0.057920
     5  H    0.053132   0.001438
     6  C   -0.072619   0.004982
     7  H    0.046623  -0.002496
     8  H    0.049382   0.001498
     9  H    0.044995   0.001033
    10  H    0.039271  -0.000360
    11  H    0.000463  -0.000153
    12  C    0.006259  -0.051798
    13  C   -0.095899   0.047951
    14  H    0.083450   0.040867
    15  H    0.068497   0.002534
    16  C   -0.073996   0.007334
    17  H    0.062536  -0.002230
    18  H    0.048665  -0.000617
    19  H    0.046667   0.001955
    20  H    0.035589  -0.000289
    21  H    0.037474  -0.000685
    22  C    0.025172  -0.054918
    23  C   -0.105098   0.058022
    24  H    0.052411   0.033756
    25  H    0.077927   0.006890
    26  C   -0.081780   0.008667
    27  H    0.052140  -0.002465
    28  H    0.054666  -0.001086
    29  H    0.052435   0.002076
    30  H    0.042832  -0.000472
    31  H    0.045867  -0.000447
    32  O   -0.363983   0.006138
    33  H    0.201027   0.000270
    34  H    0.195644   0.000071
    35  O   -0.341799   0.001235
    36  H    0.194782  -0.000456
    37  H    0.215911   0.000768
    38  O   -0.394019   0.000464
    39  H    0.193096  -0.000593
    40  H    0.206079   0.000111
    41  O   -0.358185   0.000516
    42  H    0.176532  -0.000060
    43  H    0.181679   0.000045
    44  O   -0.378252   0.000012
    45  H    0.204823   0.000001
    46  H    0.216532  -0.000007
    47  O   -0.391692   0.000151
    48  H    0.162469   0.000152
    49  H    0.165277  -0.000046
    50  O   -0.359020  -0.000002
    51  H    0.197867   0.000000
    52  H    0.169445  -0.000000
    53  O   -0.391873   0.000062
    54  H    0.171471   0.000009
    55  H    0.156007  -0.000013
    56  O   -0.408885   0.000037
    57  H    0.165994  -0.000006
    58  H    0.183958   0.000005
    59  O   -0.347567   0.000039
    60  H    0.194186   0.000004
    61  H    0.194246   0.000004
    62  O   -0.362435   0.000055
    63  H    0.162218   0.000017
    64  H    0.185496  -0.000002
    65  O   -0.368051   0.000001
    66  H    0.183781  -0.000000
    67  H    0.208748  -0.000000
    68  O   -0.356622   0.000125
    69  H    0.160334   0.000005
    70  H    0.185420  -0.000002
    71  O   -0.342153   0.000306
    72  H    0.195903   0.000025
    73  H    0.194157   0.000043
    74  O   -0.347129   0.000000
    75  H    0.212112   0.000000
    76  H    0.213074   0.000000
    77  O   -0.410369  -0.000000
    78  H    0.183177   0.000000
    79  H    0.167114   0.000000
    80  O   -0.388318   0.000015
    81  H    0.205575   0.000001
    82  H    0.200039   0.000000
    83  O   -0.347395  -0.000000
    84  H    0.211515   0.000000
    85  H    0.211591  -0.000000
    86  O   -0.348919   0.000001
    87  H    0.204665  -0.000000
    88  H    0.205608   0.000000
    89  O   -0.349720   0.000005
    90  H    0.207695  -0.000000
    91  H    0.207612   0.000001
    92  O   -0.384359   0.000000
    93  H    0.192098  -0.000000
    94  H    0.192240  -0.000000
    95  O   -0.349355   0.000001
    96  H    0.208334   0.000000
    97  H    0.208260   0.000000
    98  O   -0.347958  -0.000000
    99  H    0.211266  -0.000000
   100  H    0.211711   0.000000
   101  O   -0.346587   0.000001
   102  H    0.209510   0.000000
   103  H    0.209268   0.000000
   104  O   -0.384689  -0.000000
   105  H    0.192464   0.000000
   106  H    0.192196   0.000000
   107  O   -0.384750  -0.000000
   108  H    0.192168   0.000000
   109  H    0.192616   0.000000
   110  O   -0.350956   0.000002
   111  H    0.205887   0.000000
   112  H    0.205713   0.000000
   113  O   -0.346565  -0.000000
   114  H    0.211871   0.000000
   115  H    0.212019   0.000000
   116  O   -0.388229   0.000011
   117  H    0.194373   0.000001
   118  H    0.165891  -0.000000
 Sum of Mulliken charges =   1.00000   1.00000
 Mulliken charges and spin densities with hydrogens summed into heavy atoms:
               1          2
     1  N   -0.151421   0.833619
     2  C    0.081674   0.007930
     3  C    0.000916   0.048379
     6  C    0.012110   0.005502
    12  C    0.158207  -0.008396
    13  C    0.015301   0.045104
    16  C    0.045735   0.008314
    22  C    0.155510  -0.014272
    23  C    0.001708   0.054471
    26  C    0.059353   0.009823
    32  O    0.032688   0.006478
    35  O    0.068893   0.001548
    38  O    0.005157  -0.000017
    41  O    0.000025   0.000502
    44  O    0.043103   0.000006
    47  O   -0.063947   0.000256
    50  O    0.008292  -0.000003
    53  O   -0.064395   0.000058
    56  O   -0.058933   0.000036
    59  O    0.040865   0.000047
    62  O   -0.014721   0.000069
    65  O    0.024478   0.000001
    68  O   -0.010868   0.000129
    71  O    0.047907   0.000373
    74  O    0.078056   0.000000
    77  O   -0.060078   0.000000
    80  O    0.017296   0.000017
    83  O    0.075711   0.000000
    86  O    0.061355   0.000001
    89  O    0.065588   0.000006
    92  O   -0.000021  -0.000000
    95  O    0.067239   0.000002
    98  O    0.075019   0.000000
   101  O    0.072191   0.000002
   104  O   -0.000029   0.000000
   107  O    0.000033   0.000000
   110  O    0.060643   0.000003
   113  O    0.077324   0.000000
   116  O   -0.027964   0.000012
 Electronic spatial extent (au):  <R**2>=          50289.5349
 Charge=              1.0000 electrons
 Dipole moment (field-independent basis, Debye):
    X=              4.3339    Y=              2.1684    Z=              3.4803  Tot=              5.9664
 Quadrupole moment (field-independent basis, Debye-Ang):
   XX=           -150.9038   YY=             -7.7034   ZZ=           -139.8725
   XY=             -4.5510   XZ=             -5.5265   YZ=              0.8697
 Traceless Quadrupole moment (field-independent basis, Debye-Ang):
   XX=            -51.4106   YY=             91.7899   ZZ=            -40.3792
   XY=             -4.5510   XZ=             -5.5265   YZ=              0.8697
 Octapole moment (field-independent basis, Debye-Ang**2):
  XXX=            420.8888  YYY=            212.2441  ZZZ=           -374.3809  XYY=             53.3897
  XXY=           -396.7136  XXZ=            183.9362  XZZ=            204.9319  YZZ=           -221.9743
  YYZ=            119.8251  XYZ=            162.6805
 Hexadecapole moment (field-independent basis, Debye-Ang**3):
 XXXX=         -21097.5291 YYYY=          -6370.1467 ZZZZ=          -9915.9421 XXXY=          -2791.3461
 XXXZ=           -122.4729 YYYX=           1821.2953 YYYZ=           -978.3707 ZZZX=            495.0471
 ZZZY=           -172.4933 XXYY=          -2930.7088 XXZZ=          -4530.3556 YYZZ=          -2395.8712
 XXYZ=            646.6732 YYXZ=            318.7961 ZZXY=           -466.2038
 N-N= 5.633078543384D+03 E-N=-1.742537624261D+04  KE= 2.602343863669D+03
 Leave Link  601 at Tue Mar  3 14:41:39 2026, MaxMem=  1610612736 cpu:               2.6 elap:               0.6
 (Enter /leonardo/prod/opt/applications/g16/c02/binary/g16/l9999.exe)
 Unable to Open any file for archive entry.
 1\1\GINC-LRDN4060\FOpt\UM062X\def2SVP\C9H79N1O29(1+,2)\MORZA000\03-Mar
 -2026\0\\#p opt(addredundant) M062X/def2svp scrf=(cpcm,solvent=water) 
 empiricaldispersion=GD3\\Title Card Required\\1,2\N,-0.1414013257,-0.9
 238255032,0.3620719608\C,-0.0990744716,-0.0344041623,-0.7695057598\C,0
 .865187771,-0.4919598143,-1.8746033574\H,0.2318346539,0.9517630134,-0.
 3699642725\H,-1.1229653948,0.0798577992,-1.1545157394\C,1.1067799886,0
 .6584520168,-2.8447328436\H,1.8208267229,-0.8153558103,-1.4357930477\H
 ,0.4275223506,-1.3607973309,-2.3927373616\H,1.7507172708,0.3498462792,
 -3.6798445577\H,0.1581271208,1.0306060288,-3.260951796\H,1.5983909091,
 1.4862041948,-2.3126631133\C,1.0632281457,-1.1847474722,1.1166979313\C
 ,1.5253384602,-2.6437936112,1.0117601455\H,0.8299124801,-0.9298787006,
 2.163063832\H,1.8434384361,-0.5035233341,0.7494803555\C,2.8424378339,-
 2.8272666265,1.7575089921\H,0.7533629831,-3.3163121348,1.4135791808\H,
 1.6824688968,-2.9029778655,-0.0457527392\H,3.1137488426,-3.8916178704,
 1.7819282387\H,3.6577975129,-2.2888902134,1.2525674077\H,2.7751163535,
 -2.4654691452,2.7952022846\C,-1.3975820255,-1.514467887,0.7515060248\C
 ,-1.7739676339,-2.7056253906,-0.1516330264\H,-2.1617318626,-0.72854627
 58,0.6335613659\H,-1.3446164778,-1.8229547149,1.8061797007\C,-3.225263
 2153,-3.0919976256,0.111940432\H,-1.6334624582,-2.4339783981,-1.210113
 4844\H,-1.1017275033,-3.5517921108,0.0602573633\H,-3.5081017758,-3.976
 6922047,-0.4742887826\H,-3.3770929922,-3.3223028417,1.1769197536\H,-3.
 8939169186,-2.2644383009,-0.1664288114\O,0.3508826106,2.7614357832,0.4
 883727505\H,-0.5870747376,2.8308135446,0.2265668722\H,0.8832356488,3.3
 697717941,-0.0645304712\O,-0.6754550415,1.0488862815,2.333427852\H,-0.
 0700545597,1.7377661638,2.0024354796\H,-0.7094958692,1.1706610475,3.29
 04612143\O,-2.327722979,2.1067861196,0.4293975668\H,-2.0158926339,1.68
 84563367,1.2561215281\H,-3.1759828668,2.5593641588,0.6335611092\O,2.84
 23015622,1.4511934139,0.0322139193\H,2.0416448931,1.6623904254,0.53298
 95439\H,2.9404098021,2.2669039468,-0.488788262\O,2.281126111,4.0046510
 882,-1.0467016976\H,2.7948989444,4.8296008091,-0.8592236561\H,2.050007
 6617,4.0742631618,-1.9819473622\O,-3.534789091,0.3479018287,-1.3740482
 086\H,-4.1205355172,0.9621028537,-1.8487069306\H,-3.0765099604,0.93522
 69766,-0.7433542888\O,6.0150393739,-1.9295112258,-0.3282599652\H,6.287
 3467084,-1.0235252479,-0.5043717834\H,6.7916474103,-2.4073094758,-0.02
 26073818\O,3.6145609467,-2.9880789509,-1.5314050841\H,4.3945482262,-2.
 6116372253,-1.0980223897\H,3.9279061552,-3.7322707819,-2.0522773601\O,
 2.8508039927,-0.2985461664,5.6620292508\H,3.3093476864,0.4895049347,5.
 3536646827\H,3.3889786409,-0.6856334256,6.3578729478\O,3.2585296825,0.
 0790670776,-5.5878941009\H,2.9082831292,0.0448217314,-6.482765565\H,3.
 984809892,-0.5499568726,-5.5423175908\O,0.1379091364,-5.7952180819,0.6
 357584515\H,0.0183911306,-6.4554847229,1.3242764095\H,0.4087486755,-6.
 2657335227,-0.1575697475\O,3.6775448921,6.307310597,-0.7035894349\H,3.
 4011889497,6.8942109203,0.0070883346\H,4.6310811749,6.1986685496,-0.63
 08192211\O,-0.7999292614,-3.1074243628,-3.7221639754\H,-1.4410167454,-
 2.8800477176,-4.4021472645\H,-0.2862981409,-3.846896171,-4.0594842251\
 O,-1.966428546,-2.9018629877,3.9616367033\H,-2.7044094619,-2.521608586
 ,4.4473179882\H,-1.5218647857,-3.5073784639,4.5622605745\O,-4.86599110
 86,6.0007692763,0.3893270289\H,-5.129621041,6.4398299945,-0.4249449625
 \H,-4.0735088883,6.4437760541,0.7103884086\O,-8.3645168577,-1.97875604
 36,-2.0739278227\H,-7.5354265195,-1.5648660353,-2.3345012321\H,-8.1687
 569611,-2.8993002863,-1.8743067097\O,-4.8325086584,3.1902191293,0.5682
 254928\H,-4.9180613923,4.1665522516,0.5781527619\H,-5.530088342,2.8248
 691077,1.1513613857\O,8.1771495003,-3.4433976471,0.6647389009\H,8.0696
 103361,-3.693990134,1.5882495032\H,8.3600285529,-4.249061434,0.1708406
 713\O,4.6667138654,-5.0692690125,-3.3190501311\H,5.3277166413,-4.76831
 31343,-3.9499349041\H,4.0389118265,-5.6129974593,-3.8040784281\O,4.536
 9990077,1.8518643723,4.8607978267\H,4.2867976223,2.7659681543,4.694369
 7097\H,5.142701888,1.5914243381,4.1591891116\O,6.7250989026,3.44639749
 48,-3.7943153664\H,6.010770954,3.6730489033,-4.3991042527\H,6.40101597
 23,2.7242469776,-3.2445840897\O,-0.1858911261,-7.7868675957,2.68684105
 33\H,0.3441452144,-7.6795651556,3.4828786562\H,-1.050804883,-8.1096748
 09,2.9599177238\O,2.8340392541,7.9808441312,1.3952473166\H,2.758656877
 9,8.934727311,1.2989739359\H,2.0784552144,7.6851334459,1.9131065082\O,
 -2.7914809447,-2.5251767238,-5.6906454487\H,-2.7941859944,-1.643130457
 8,-6.0755858148\H,-3.6638946243,-2.6706855651,-5.311742131\O,-1.597887
 3015,-0.1276078629,8.3120574629\H,-1.2164638097,0.6434916603,7.8787122
 913\H,-0.8996023953,-0.7874858113,8.3719010761\O,-0.9661358593,8.99380
 48406,-1.6417864079\H,-0.6702105029,9.6296315151,-2.299760141\H,-0.625
 6605337,8.132991035,-1.9084700484\O,-7.4997170722,-4.6783887001,-1.517
 5392543\H,-7.5593876193,-5.1126360813,-0.6609161138\H,-7.3106653639,-5
 .3604138119,-2.1698231458\O,-6.8386404399,1.9844823107,2.2164447196\H,
 -6.5080619166,1.5243919314,2.9945514183\H,-7.4130838229,1.369116938,1.
 7493985072\O,-5.1405653017,2.6708560264,-2.1642028421\H,-6.0826235585,
 2.7427326538,-2.3371082222\H,-5.030397654,2.7904840858,-1.2024842552\\
 Version=ES64L-G16RevC.02\State=2-A\HF=-2623.5007604\S2=0.754872\S2-1=0
 .\S2A=0.75002\RMSD=1.876e-09\RMSF=3.994e-03\Dipole=1.7030854,0.8764561
 ,1.3569674\Quadrupole=-38.1916296,68.1887769,-29.9971473,-4.234226,-4.
 0545021,-0.1052656\PG=C01 [X(C9H79N1O29)]\\@
 The archive entry for this job was punched.


 TIMES HAVE CHANGED. IN THE BIBLE WHEN AN ASS
 SPOKE IT WAS CONSIDERED A MIRACLE.
 Job cpu time:       1 days  8 hours  8 minutes 17.4 seconds.
 Elapsed time:       0 days  3 hours  1 minutes 56.3 seconds.
 File lengths (MBytes):  RWF=   1856 Int=      0 D2E=      0 Chk=    107 Scr=      1
 Normal termination of Gaussian 16 at Tue Mar  3 14:41:41 2026.
