 Set GAUSS_PDEF to "12".
 Entering Gaussian System, Link 0=g16
 Initial command:
 /leonardo/prod/opt/applications/g16/c02/binary/g16/l1.exe "/leonardo_scratch/large/userexternal/morza000/g16_35403170/Gau-156228.inp" -scrdir="/leonardo_scratch/large/userexternal/morza000/g16_35403170/"
 Default is to use a total of  12 processors:
                               12 via shared-memory
                                1 via Linda
 Entering Link 1 = /leonardo/prod/opt/applications/g16/c02/binary/g16/l1.exe PID=    156233.
  
 Copyright (c) 1988-2021, Gaussian, Inc.  All Rights Reserved.
  
 This is part of the Gaussian(R) 16 program.  It is based on
 the Gaussian(R) 09 system (copyright 2009, Gaussian, Inc.),
 the Gaussian(R) 03 system (copyright 2003, Gaussian, Inc.),
 the Gaussian(R) 98 system (copyright 1998, Gaussian, Inc.),
 the Gaussian(R) 94 system (copyright 1995, Gaussian, Inc.),
 the Gaussian 92(TM) system (copyright 1992, Gaussian, Inc.),
 the Gaussian 90(TM) system (copyright 1990, Gaussian, Inc.),
 the Gaussian 88(TM) system (copyright 1988, Gaussian, Inc.),
 the Gaussian 86(TM) system (copyright 1986, Carnegie Mellon
 University), and the Gaussian 82(TM) system (copyright 1983,
 Carnegie Mellon University). Gaussian is a federally registered
 trademark of Gaussian, Inc.
  
 This software contains proprietary and confidential information,
 including trade secrets, belonging to Gaussian, Inc.
  
 This software is provided under written license and may be
 used, copied, transmitted, or stored only in accord with that
 written license.
  
 The following legend is applicable only to US Government
 contracts under FAR:
  
                    RESTRICTED RIGHTS LEGEND
  
 Use, reproduction and disclosure by the US Government is
 subject to restrictions as set forth in subparagraphs (a)
 and (c) of the Commercial Computer Software - Restricted
 Rights clause in FAR 52.227-19.
  
 Gaussian, Inc.
 340 Quinnipiac St., Bldg. 40, Wallingford CT 06492
  
  
 ---------------------------------------------------------------
 Warning -- This program may not be used in any manner that
 competes with the business of Gaussian, Inc. or will provide
 assistance to any competitor of Gaussian, Inc.  The licensee
 of this program is prohibited from giving any competitor of
 Gaussian, Inc. access to this program.  By using this program,
 the user acknowledges that Gaussian, Inc. is engaged in the
 business of creating and licensing software in the field of
 computational chemistry and represents and warrants to the
 licensee that it is not a competitor of Gaussian, Inc. and that
 it will not use this program in any manner prohibited above.
 ---------------------------------------------------------------
  

 Cite this work as:
 Gaussian 16, Revision C.02,
 M. J. Frisch, G. W. Trucks, H. B. Schlegel, G. E. Scuseria, 
 M. A. Robb, J. R. Cheeseman, G. Scalmani, V. Barone, 
 G. A. Petersson, H. Nakatsuji, X. Li, M. Caricato, A. V. Marenich, 
 J. Bloino, B. G. Janesko, R. Gomperts, B. Mennucci, H. P. Hratchian, 
 J. V. Ortiz, A. F. Izmaylov, J. L. Sonnenberg, D. Williams-Young, 
 F. Ding, F. Lipparini, F. Egidi, J. Goings, B. Peng, A. Petrone, 
 T. Henderson, D. Ranasinghe, V. G. Zakrzewski, J. Gao, N. Rega, 
 G. Zheng, W. Liang, M. Hada, M. Ehara, K. Toyota, R. Fukuda, 
 J. Hasegawa, M. Ishida, T. Nakajima, Y. Honda, O. Kitao, H. Nakai, 
 T. Vreven, K. Throssell, J. A. Montgomery, Jr., J. E. Peralta, 
 F. Ogliaro, M. J. Bearpark, J. J. Heyd, E. N. Brothers, K. N. Kudin, 
 V. N. Staroverov, T. A. Keith, R. Kobayashi, J. Normand, 
 K. Raghavachari, A. P. Rendell, J. C. Burant, S. S. Iyengar, 
 J. Tomasi, M. Cossi, J. M. Millam, M. Klene, C. Adamo, R. Cammi, 
 J. W. Ochterski, R. L. Martin, K. Morokuma, O. Farkas, 
 J. B. Foresman, and D. J. Fox, Gaussian, Inc., Wallingford CT, 2019.
 
 ******************************************
 Gaussian 16:  ES64L-G16RevC.02  7-Dec-2021
                 3-Mar-2026 
 ******************************************
 %nprocshared=12
 Will use up to   12 processors via shared memory.
 %mem=12GB
 ----------------------------------------------------------------------
 #p opt(addredundant) M062X/def2svp scrf=(cpcm,solvent=water) empirical
 dispersion=GD3
 ----------------------------------------------------------------------
 1/18=120,19=15,26=3,38=1/1,3;
 2/9=110,12=2,17=6,18=5,40=1/2;
 3/5=43,7=101,11=2,25=1,30=1,70=2101,71=1,72=1,74=-55,124=31/1,2,3;
 4//1;
 5/5=2,38=5,53=1/2;
 6/7=2,8=2,9=2,10=2,28=1/1;
 7//1,2,3,16;
 1/18=20,19=15,26=3/3(2);
 2/9=110/2;
 99//99;
 2/9=110/2;
 3/5=43,7=101,11=2,25=1,30=1,70=2105,71=1,72=1,74=-55,124=31/1,2,3;
 4/5=5,16=3,69=1/1;
 5/5=2,38=5,53=1/2;
 7//1,2,3,16;
 1/18=20,19=15,26=3/3(-5);
 2/9=110/2;
 6/7=2,8=2,9=2,10=2,19=2,28=1/1;
 99/9=1/99;
 Leave Link    1 at Tue Mar  3 11:37:22 2026, MaxMem=  1610612736 cpu:               0.1 elap:               0.7
 (Enter /leonardo/prod/opt/applications/g16/c02/binary/g16/l101.exe)
 -------------------
 Title Card Required
 -------------------
 Symbolic Z-matrix:
 Charge =  1 Multiplicity = 2
 N                    -0.16833  -0.93058   0.37843 
 C                    -0.1      -0.0386   -0.75268 
 C                     0.85873  -0.52071  -1.85091 
 H                     0.27016   1.19252  -0.22042 
 H                    -1.11772   0.10498  -1.1422 
 C                     1.09351   0.60757  -2.84841 
 H                     1.81507  -0.83473  -1.40641 
 H                     0.41928  -1.39956  -2.35024 
 H                     1.74605   0.28609  -3.67181 
 H                     0.14281   0.95589  -3.28004 
 H                     1.5702    1.45925  -2.34027 
 C                     1.02529  -1.20875   1.1439 
 C                     1.50138  -2.65984   0.98928 
 H                     0.7729   -1.00038   2.19542 
 H                     1.80074  -0.50163   0.81797 
 C                     2.81715  -2.85632   1.73402 
 H                     0.73488  -3.35339   1.36468 
 H                     1.66596  -2.88354  -0.07519 
 H                     3.09424  -3.91944   1.7282 
 H                     3.63105  -2.29909   1.24768 
 H                     2.74417  -2.52477   2.78146 
 C                    -1.43396  -1.51534   0.74277 
 C                    -1.80212  -2.70334  -0.1688 
 H                    -2.1926   -0.72585   0.61249 
 H                    -1.39849  -1.82972   1.79662 
 C                    -3.24934  -3.10378   0.09547 
 H                    -1.66513  -2.42378  -1.22552 
 H                    -1.12359  -3.54569   0.03767 
 H                    -3.52672  -3.98419  -0.49964 
 H                    -3.39541  -3.34737   1.15827 
 H                    -3.92758  -2.28028  -0.17111 
 O                     0.25764   3.16356   0.77105 
 H                    -0.61673   3.03372   0.35859 
 H                     0.84135   3.58349   0.10739 
 O                    -0.62678   1.08965   2.2788 
 H                    -0.10229   1.87132   2.01872 
 H                    -0.69084   1.1253    3.24132 
 O                    -2.31414   2.12823   0.39895 
 H                    -1.99137   1.68904   1.21032 
 H                    -3.16751   2.5615    0.62196 
 O                     2.60425   1.53458   0.20631 
 H                     1.87949   1.83374   0.77456 
 H                     2.72687   2.32137  -0.35392 
 O                     2.21923   4.04251  -0.99107 
 H                     2.77013   4.85144  -0.839 
 H                     1.94758   4.10347  -1.9158 
 O                    -3.50061   0.37163  -1.41076 
 H                    -4.10399   0.97501  -1.87719 
 H                    -3.04848   0.96773  -0.78361 
 O                     6.01504  -1.92951  -0.32826 
 H                     6.28735  -1.02353  -0.50438 
 H                     6.79164  -2.40731  -0.0226 
 O                     3.61456  -2.98806  -1.53144 
 H                     4.39453  -2.61162  -1.09802 
 H                     3.92791  -3.73228  -2.05227 
 O                     2.85079  -0.29855   5.66204 
 H                     3.30935   0.4895    5.35365 
 H                     3.38899  -0.68563   6.35786 
 O                     3.25846   0.07908  -5.588 
 H                     2.90826   0.0447   -6.48278 
 H                     3.98485  -0.54989  -5.54225 
 O                     0.13789  -5.79526   0.63573 
 H                     0.01838  -6.45547   1.32428 
 H                     0.40878  -6.26574  -0.15756 
 O                     3.67776   6.30748  -0.70356 
 H                     3.40122   6.89426   0.00708 
 H                     4.63112   6.19875  -0.6308 
 O                    -0.80008  -3.10749  -3.72219 
 H                    -1.44098  -2.88007  -4.40218 
 H                    -0.28626  -3.84689  -4.05945 
 O                    -1.96649  -2.90193   3.96161 
 H                    -2.70441  -2.52162   4.44729 
 H                    -1.52182  -3.50732   4.56226 
 O                    -4.86599   6.00077   0.38933 
 H                    -5.12962   6.43983  -0.42494 
 H                    -4.0735    6.44379   0.71039 
 O                    -8.36452  -1.97877  -2.07389 
 H                    -7.53562  -1.56497  -2.33457 
 H                    -8.16874  -2.8993   -1.87432 
 O                    -4.83278   3.1901    0.56821 
 H                    -4.91806   4.16654   0.57813 
 H                    -5.53012   2.82491   1.15139 
 O                     8.17715  -3.4434    0.66474 
 H                     8.06961  -3.69399   1.58825 
 H                     8.36003  -4.24906   0.17084 
 O                     4.66671  -5.06928  -3.31905 
 H                     5.32773  -4.76832  -3.94992 
 H                     4.03891  -5.61299  -3.80409 
 O                     4.53701   1.85186   4.86079 
 H                     4.2868    2.76597   4.69438 
 H                     5.1427    1.59143   4.15918 
 O                     6.72505   3.44631  -3.79441 
 H                     6.01093   3.67303  -4.39917 
 H                     6.4013    2.72434  -3.24462 
 O                    -0.18587  -7.78686   2.68685 
 H                     0.34413  -7.67955   3.48289 
 H                    -1.0508   -8.10969   2.9599 
 O                     2.83403   7.98084   1.39525 
 H                     2.75865   8.93473   1.29898 
 H                     2.07845   7.68514   1.91311 
 O                    -2.79143  -2.52514  -5.69067 
 H                    -2.79421  -1.64312  -6.07556 
 H                    -3.66388  -2.67072  -5.31174 
 O                    -1.59794  -0.12754   8.31211 
 H                    -1.21645   0.64338   7.87904 
 H                    -0.89962  -0.78747   8.37189 
 O                    -0.96618   8.99378  -1.64175 
 H                    -0.67024   9.62963  -2.29976 
 H                    -0.62559   8.13312  -1.90851 
 O                    -7.49974  -4.67841  -1.51755 
 H                    -7.55941  -5.11265  -0.66091 
 H                    -7.31068  -5.36041  -2.16983 
 O                    -6.83859   1.9845    2.21651 
 H                    -6.50805   1.52433   2.99452 
 H                    -7.41311   1.36918   1.74938 
 O                    -5.14056   2.6708   -2.16419 
 H                    -6.08261   2.74278  -2.33711 
 H                    -5.03043   2.79048  -1.20249 
 
 Add virtual bond connecting atoms H4         and C2         Dist= 2.63D+00.
 Add virtual bond connecting atoms O65        and H45        Dist= 3.25D+00.
 Add virtual bond connecting atoms O80        and H40        Dist= 3.37D+00.
 Add virtual bond connecting atoms H49        and O38        Dist= 3.42D+00.
 Add virtual bond connecting atoms O44        and H34        Dist= 3.44D+00.
 Add virtual bond connecting atoms H118       and O80        Dist= 3.45D+00.
 Add virtual bond connecting atoms H36        and O32        Dist= 3.46D+00.
 Add virtual bond connecting atoms O38        and H33        Dist= 3.64D+00.
 Add virtual bond connecting atoms H39        and O35        Dist= 3.47D+00.
 Add virtual bond connecting atoms H81        and O74        Dist= 3.49D+00.
 Add virtual bond connecting atoms O98        and H66        Dist= 3.50D+00.
 Add virtual bond connecting atoms O83        and H52        Dist= 3.52D+00.
 Add virtual bond connecting atoms O113       and H82        Dist= 3.56D+00.
 Add virtual bond connecting atoms O89        and H57        Dist= 3.59D+00.
 Add virtual bond connecting atoms O101       and H69        Dist= 3.59D+00.
 Add virtual bond connecting atoms O44        and H43        Dist= 3.60D+00.
 Add virtual bond connecting atoms O95        and H63        Dist= 3.62D+00.
 Add virtual bond connecting atoms H54        and O50        Dist= 3.63D+00.
 Add virtual bond connecting atoms O110       and H79        Dist= 3.65D+00.
 Add virtual bond connecting atoms O86        and H55        Dist= 3.75D+00.
 Add virtual bond connecting atoms H33        and H4         Dist= 4.01D+00.
 Add virtual bond connecting atoms H42        and H4         Dist= 3.78D+00.
 Add virtual bond connecting atoms H49        and H5         Dist= 4.05D+00.
 Add virtual bond connecting atoms O53        and H18        Dist= 4.60D+00.
 Add virtual bond connecting atoms H54        and H20        Dist= 4.70D+00.
 Add virtual bond connecting atoms O59        and H9         Dist= 4.63D+00.
 Add virtual bond connecting atoms O71        and H25        Dist= 4.69D+00.
 Add virtual bond connecting atoms O68        and H8         Dist= 4.74D+00.
 Add virtual bond connecting atoms O62        and H17        Dist= 4.95D+00.
 Add virtual bond connecting atoms O62        and H28        Dist= 5.00D+00.
 Add virtual bond connecting atoms O56        and H21        Dist= 6.88D+00.
 Add virtual bond connecting atoms H78        and H31        Dist= 8.06D+00.
 Add virtual bond connecting atoms H78        and H48        Dist= 8.11D+00.
 Add virtual bond connecting atoms O110       and H29        Dist= 7.86D+00.
 Add virtual bond connecting atoms H111       and H29        Dist= 7.92D+00.
 Add virtual bond connecting atoms O107       and H76        Dist= 8.80D+00.
 Add virtual bond connecting atoms O107       and H99        Dist= 8.97D+00.
 Add virtual bond connecting atoms H109       and H46        Dist= 9.04D+00.
 Add virtual bond connecting atoms H109       and H66        Dist= 8.75D+00.
 Add virtual bond connecting atoms H109       and H76        Dist= 8.78D+00.
 Add virtual bond connecting atoms O92        and H67        Dist= 8.86D+00.
 Add virtual bond connecting atoms H93        and H46        Dist= 9.04D+00.
 Add virtual bond connecting atoms H93        and O59        Dist= 8.84D+00.
 Add virtual bond connecting atoms H93        and H67        Dist= 8.96D+00.
 Add virtual bond connecting atoms H94        and H43        Dist= 8.87D+00.
 Add virtual bond connecting atoms O104       and H72        Dist= 8.84D+00.
 Add virtual bond connecting atoms H105       and H37        Dist= 8.87D+00.
 Add virtual bond connecting atoms H105       and O56        Dist= 8.93D+00.
 Add virtual bond connecting atoms H106       and O56        Dist= 8.79D+00.
 Add virtual bond connecting atoms H106       and H58        Dist= 8.96D+00.
 The following ModRedundant input section has been read:
 B       4      32 F                                                           
 X      50 F                                                                   
 X      51 F                                                                   
 X      52 F                                                                   
 X      53 F                                                                   
 X      54 F                                                                   
 X      55 F                                                                   
 X      56 F                                                                   
 X      57 F                                                                   
 X      58 F                                                                   
 X      59 F                                                                   
 X      60 F                                                                   
 X      61 F                                                                   
 X      62 F                                                                   
 X      63 F                                                                   
 X      64 F                                                                   
 X      65 F                                                                   
 X      66 F                                                                   
 X      67 F                                                                   
 X      68 F                                                                   
 X      69 F                                                                   
 X      70 F                                                                   
 X      71 F                                                                   
 X      72 F                                                                   
 X      73 F                                                                   
 X      74 F                                                                   
 X      75 F                                                                   
 X      76 F                                                                   
 X      77 F                                                                   
 X      78 F                                                                   
 X      79 F                                                                   
 X      80 F                                                                   
 X      81 F                                                                   
 X      82 F                                                                   
 X      83 F                                                                   
 X      84 F                                                                   
 X      85 F                                                                   
 X      86 F                                                                   
 X      87 F                                                                   
 X      88 F                                                                   
 X      89 F                                                                   
 X      90 F                                                                   
 X      91 F                                                                   
 X      92 F                                                                   
 X      93 F                                                                   
 X      94 F                                                                   
 X      95 F                                                                   
 X      96 F                                                                   
 X      97 F                                                                   
 X      98 F                                                                   
 X      99 F                                                                   
 X     100 F                                                                   
 X     101 F                                                                   
 X     102 F                                                                   
 X     103 F                                                                   
 X     104 F                                                                   
 X     105 F                                                                   
 X     106 F                                                                   
 X     107 F                                                                   
 X     108 F                                                                   
 X     109 F                                                                   
 X     110 F                                                                   
 X     111 F                                                                   
 X     112 F                                                                   
 X     113 F                                                                   
 X     114 F                                                                   
 X     115 F                                                                   
 X     116 F                                                                   
 X     117 F                                                                   
 X     118 F                                                                   
 
 ITRead=  0  0  0  0  0  0  0  0  0  0  0  0  0  0  0  0  0  0  0  0
 ITRead=  0  0  0  0  0  0  0  0  0  0  0  0  0  0  0  0  0  0  0  0
 ITRead=  0  0  0  0  0  0  0  0  0  0  0  0  0  0  0  0  0  0  0  0
 ITRead=  0  0  0  0  0  0  0  0  0  0  0  0  0  0  0  0  0  0  0  0
 ITRead=  0  0  0  0  0  0  0  0  0  0  0  0  0  0  0  0  0  0  0  0
 ITRead=  0  0  0  0  0  0  0  0  0  0  0  0  0  0  0  0  0  0
 MicOpt= -1 -1 -1 -1 -1 -1 -1 -1 -1 -1 -1 -1 -1 -1 -1 -1 -1 -1 -1 -1
 MicOpt= -1 -1 -1 -1 -1 -1 -1 -1 -1 -1 -1 -1 -1 -1 -1 -1 -1 -1 -1 -1
 MicOpt= -1 -1 -1 -1 -1 -1 -1 -1 -1 -1 -1 -1 -1 -1 -1 -1 -1 -1 -1 -1
 MicOpt= -1 -1 -1 -1 -1 -1 -1 -1 -1 -1 -1 -1 -1 -1 -1 -1 -1 -1 -1 -1
 MicOpt= -1 -1 -1 -1 -1 -1 -1 -1 -1 -1 -1 -1 -1 -1 -1 -1 -1 -1 -1 -1
 MicOpt= -1 -1 -1 -1 -1 -1 -1 -1 -1 -1 -1 -1 -1 -1 -1 -1 -1 -1
 NAtoms=    118 NQM=      118 NQMF=       0 NMMI=      0 NMMIF=      0
                NMic=       0 NMicF=      0.
                    Isotopes and Nuclear Properties:
 (Nuclear quadrupole moments (NQMom) in fm**2, nuclear magnetic moments (NMagM)
  in nuclear magnetons)

  Atom         1           2           3           4           5           6           7           8           9          10
 IAtWgt=          14          12          12           1           1          12           1           1           1           1
 AtmWgt=  14.0030740  12.0000000  12.0000000   1.0078250   1.0078250  12.0000000   1.0078250   1.0078250   1.0078250   1.0078250
 NucSpn=           2           0           0           1           1           0           1           1           1           1
 AtZEff=  -0.0000000  -0.0000000  -0.0000000  -0.0000000  -0.0000000  -0.0000000  -0.0000000  -0.0000000  -0.0000000  -0.0000000
 NQMom=    2.0440000   0.0000000   0.0000000   0.0000000   0.0000000   0.0000000   0.0000000   0.0000000   0.0000000   0.0000000
 NMagM=    0.4037610   0.0000000   0.0000000   2.7928460   2.7928460   0.0000000   2.7928460   2.7928460   2.7928460   2.7928460
 AtZNuc=   7.0000000   6.0000000   6.0000000   1.0000000   1.0000000   6.0000000   1.0000000   1.0000000   1.0000000   1.0000000

  Atom        11          12          13          14          15          16          17          18          19          20
 IAtWgt=           1          12          12           1           1          12           1           1           1           1
 AtmWgt=   1.0078250  12.0000000  12.0000000   1.0078250   1.0078250  12.0000000   1.0078250   1.0078250   1.0078250   1.0078250
 NucSpn=           1           0           0           1           1           0           1           1           1           1
 AtZEff=  -0.0000000  -0.0000000  -0.0000000  -0.0000000  -0.0000000  -0.0000000  -0.0000000  -0.0000000  -0.0000000  -0.0000000
 NQMom=    0.0000000   0.0000000   0.0000000   0.0000000   0.0000000   0.0000000   0.0000000   0.0000000   0.0000000   0.0000000
 NMagM=    2.7928460   0.0000000   0.0000000   2.7928460   2.7928460   0.0000000   2.7928460   2.7928460   2.7928460   2.7928460
 AtZNuc=   1.0000000   6.0000000   6.0000000   1.0000000   1.0000000   6.0000000   1.0000000   1.0000000   1.0000000   1.0000000

  Atom        21          22          23          24          25          26          27          28          29          30
 IAtWgt=           1          12          12           1           1          12           1           1           1           1
 AtmWgt=   1.0078250  12.0000000  12.0000000   1.0078250   1.0078250  12.0000000   1.0078250   1.0078250   1.0078250   1.0078250
 NucSpn=           1           0           0           1           1           0           1           1           1           1
 AtZEff=  -0.0000000  -0.0000000  -0.0000000  -0.0000000  -0.0000000  -0.0000000  -0.0000000  -0.0000000  -0.0000000  -0.0000000
 NQMom=    0.0000000   0.0000000   0.0000000   0.0000000   0.0000000   0.0000000   0.0000000   0.0000000   0.0000000   0.0000000
 NMagM=    2.7928460   0.0000000   0.0000000   2.7928460   2.7928460   0.0000000   2.7928460   2.7928460   2.7928460   2.7928460
 AtZNuc=   1.0000000   6.0000000   6.0000000   1.0000000   1.0000000   6.0000000   1.0000000   1.0000000   1.0000000   1.0000000

  Atom        31          32          33          34          35          36          37          38          39          40
 IAtWgt=           1          16           1           1          16           1           1          16           1           1
 AtmWgt=   1.0078250  15.9949146   1.0078250   1.0078250  15.9949146   1.0078250   1.0078250  15.9949146   1.0078250   1.0078250
 NucSpn=           1           0           1           1           0           1           1           0           1           1
 AtZEff=  -0.0000000  -0.0000000  -0.0000000  -0.0000000  -0.0000000  -0.0000000  -0.0000000  -0.0000000  -0.0000000  -0.0000000
 NQMom=    0.0000000   0.0000000   0.0000000   0.0000000   0.0000000   0.0000000   0.0000000   0.0000000   0.0000000   0.0000000
 NMagM=    2.7928460   0.0000000   2.7928460   2.7928460   0.0000000   2.7928460   2.7928460   0.0000000   2.7928460   2.7928460
 AtZNuc=   1.0000000   8.0000000   1.0000000   1.0000000   8.0000000   1.0000000   1.0000000   8.0000000   1.0000000   1.0000000

  Atom        41          42          43          44          45          46          47          48          49          50
 IAtWgt=          16           1           1          16           1           1          16           1           1          16
 AtmWgt=  15.9949146   1.0078250   1.0078250  15.9949146   1.0078250   1.0078250  15.9949146   1.0078250   1.0078250  15.9949146
 NucSpn=           0           1           1           0           1           1           0           1           1           0
 AtZEff=  -0.0000000  -0.0000000  -0.0000000  -0.0000000  -0.0000000  -0.0000000  -0.0000000  -0.0000000  -0.0000000  -0.0000000
 NQMom=    0.0000000   0.0000000   0.0000000   0.0000000   0.0000000   0.0000000   0.0000000   0.0000000   0.0000000   0.0000000
 NMagM=    0.0000000   2.7928460   2.7928460   0.0000000   2.7928460   2.7928460   0.0000000   2.7928460   2.7928460   0.0000000
 AtZNuc=   8.0000000   1.0000000   1.0000000   8.0000000   1.0000000   1.0000000   8.0000000   1.0000000   1.0000000   8.0000000

  Atom        51          52          53          54          55          56          57          58          59          60
 IAtWgt=           1           1          16           1           1          16           1           1          16           1
 AtmWgt=   1.0078250   1.0078250  15.9949146   1.0078250   1.0078250  15.9949146   1.0078250   1.0078250  15.9949146   1.0078250
 NucSpn=           1           1           0           1           1           0           1           1           0           1
 AtZEff=  -0.0000000  -0.0000000  -0.0000000  -0.0000000  -0.0000000  -0.0000000  -0.0000000  -0.0000000  -0.0000000  -0.0000000
 NQMom=    0.0000000   0.0000000   0.0000000   0.0000000   0.0000000   0.0000000   0.0000000   0.0000000   0.0000000   0.0000000
 NMagM=    2.7928460   2.7928460   0.0000000   2.7928460   2.7928460   0.0000000   2.7928460   2.7928460   0.0000000   2.7928460
 AtZNuc=   1.0000000   1.0000000   8.0000000   1.0000000   1.0000000   8.0000000   1.0000000   1.0000000   8.0000000   1.0000000

  Atom        61          62          63          64          65          66          67          68          69          70
 IAtWgt=           1          16           1           1          16           1           1          16           1           1
 AtmWgt=   1.0078250  15.9949146   1.0078250   1.0078250  15.9949146   1.0078250   1.0078250  15.9949146   1.0078250   1.0078250
 NucSpn=           1           0           1           1           0           1           1           0           1           1
 AtZEff=  -0.0000000  -0.0000000  -0.0000000  -0.0000000  -0.0000000  -0.0000000  -0.0000000  -0.0000000  -0.0000000  -0.0000000
 NQMom=    0.0000000   0.0000000   0.0000000   0.0000000   0.0000000   0.0000000   0.0000000   0.0000000   0.0000000   0.0000000
 NMagM=    2.7928460   0.0000000   2.7928460   2.7928460   0.0000000   2.7928460   2.7928460   0.0000000   2.7928460   2.7928460
 AtZNuc=   1.0000000   8.0000000   1.0000000   1.0000000   8.0000000   1.0000000   1.0000000   8.0000000   1.0000000   1.0000000

  Atom        71          72          73          74          75          76          77          78          79          80
 IAtWgt=          16           1           1          16           1           1          16           1           1          16
 AtmWgt=  15.9949146   1.0078250   1.0078250  15.9949146   1.0078250   1.0078250  15.9949146   1.0078250   1.0078250  15.9949146
 NucSpn=           0           1           1           0           1           1           0           1           1           0
 AtZEff=  -0.0000000  -0.0000000  -0.0000000  -0.0000000  -0.0000000  -0.0000000  -0.0000000  -0.0000000  -0.0000000  -0.0000000
 NQMom=    0.0000000   0.0000000   0.0000000   0.0000000   0.0000000   0.0000000   0.0000000   0.0000000   0.0000000   0.0000000
 NMagM=    0.0000000   2.7928460   2.7928460   0.0000000   2.7928460   2.7928460   0.0000000   2.7928460   2.7928460   0.0000000
 AtZNuc=   8.0000000   1.0000000   1.0000000   8.0000000   1.0000000   1.0000000   8.0000000   1.0000000   1.0000000   8.0000000

  Atom        81          82          83          84          85          86          87          88          89          90
 IAtWgt=           1           1          16           1           1          16           1           1          16           1
 AtmWgt=   1.0078250   1.0078250  15.9949146   1.0078250   1.0078250  15.9949146   1.0078250   1.0078250  15.9949146   1.0078250
 NucSpn=           1           1           0           1           1           0           1           1           0           1
 AtZEff=  -0.0000000  -0.0000000  -0.0000000  -0.0000000  -0.0000000  -0.0000000  -0.0000000  -0.0000000  -0.0000000  -0.0000000
 NQMom=    0.0000000   0.0000000   0.0000000   0.0000000   0.0000000   0.0000000   0.0000000   0.0000000   0.0000000   0.0000000
 NMagM=    2.7928460   2.7928460   0.0000000   2.7928460   2.7928460   0.0000000   2.7928460   2.7928460   0.0000000   2.7928460
 AtZNuc=   1.0000000   1.0000000   8.0000000   1.0000000   1.0000000   8.0000000   1.0000000   1.0000000   8.0000000   1.0000000

  Atom        91          92          93          94          95          96          97          98          99         100
 IAtWgt=           1          16           1           1          16           1           1          16           1           1
 AtmWgt=   1.0078250  15.9949146   1.0078250   1.0078250  15.9949146   1.0078250   1.0078250  15.9949146   1.0078250   1.0078250
 NucSpn=           1           0           1           1           0           1           1           0           1           1
 AtZEff=  -0.0000000  -0.0000000  -0.0000000  -0.0000000  -0.0000000  -0.0000000  -0.0000000  -0.0000000  -0.0000000  -0.0000000
 NQMom=    0.0000000   0.0000000   0.0000000   0.0000000   0.0000000   0.0000000   0.0000000   0.0000000   0.0000000   0.0000000
 NMagM=    2.7928460   0.0000000   2.7928460   2.7928460   0.0000000   2.7928460   2.7928460   0.0000000   2.7928460   2.7928460
 AtZNuc=   1.0000000   8.0000000   1.0000000   1.0000000   8.0000000   1.0000000   1.0000000   8.0000000   1.0000000   1.0000000

  Atom       101         102         103         104         105         106         107         108         109         110
 IAtWgt=          16           1           1          16           1           1          16           1           1          16
 AtmWgt=  15.9949146   1.0078250   1.0078250  15.9949146   1.0078250   1.0078250  15.9949146   1.0078250   1.0078250  15.9949146
 NucSpn=           0           1           1           0           1           1           0           1           1           0
 AtZEff=  -0.0000000  -0.0000000  -0.0000000  -0.0000000  -0.0000000  -0.0000000  -0.0000000  -0.0000000  -0.0000000  -0.0000000
 NQMom=    0.0000000   0.0000000   0.0000000   0.0000000   0.0000000   0.0000000   0.0000000   0.0000000   0.0000000   0.0000000
 NMagM=    0.0000000   2.7928460   2.7928460   0.0000000   2.7928460   2.7928460   0.0000000   2.7928460   2.7928460   0.0000000
 AtZNuc=   8.0000000   1.0000000   1.0000000   8.0000000   1.0000000   1.0000000   8.0000000   1.0000000   1.0000000   8.0000000

  Atom       111         112         113         114         115         116         117         118
 IAtWgt=           1           1          16           1           1          16           1           1
 AtmWgt=   1.0078250   1.0078250  15.9949146   1.0078250   1.0078250  15.9949146   1.0078250   1.0078250
 NucSpn=           1           1           0           1           1           0           1           1
 AtZEff=  -0.0000000  -0.0000000  -0.0000000  -0.0000000  -0.0000000  -0.0000000  -0.0000000  -0.0000000
 NQMom=    0.0000000   0.0000000   0.0000000   0.0000000   0.0000000   0.0000000   0.0000000   0.0000000
 NMagM=    2.7928460   2.7928460   0.0000000   2.7928460   2.7928460   0.0000000   2.7928460   2.7928460
 AtZNuc=   1.0000000   1.0000000   8.0000000   1.0000000   1.0000000   8.0000000   1.0000000   1.0000000
 Leave Link  101 at Tue Mar  3 11:37:22 2026, MaxMem=  1610612736 cpu:               0.4 elap:               0.5
 (Enter /leonardo/prod/opt/applications/g16/c02/binary/g16/l103.exe)

 GradGradGradGradGradGradGradGradGradGradGradGradGradGradGradGradGradGrad
 Berny optimization.
 Initialization pass.
                           ----------------------------
                           !    Initial Parameters    !
                           ! (Angstroms and Degrees)  !
 --------------------------                            --------------------------
 ! Name  Definition              Value          Derivative Info.                !
 --------------------------------------------------------------------------------
 ! X50   R(50,-1)                6.015          Frozen                          !
 ! Y50   R(50,-2)               -1.9295         Frozen                          !
 ! Z50   R(50,-3)               -0.3283         Frozen                          !
 ! X51   R(51,-1)                6.2873         Frozen                          !
 ! Y51   R(51,-2)               -1.0235         Frozen                          !
 ! Z51   R(51,-3)               -0.5044         Frozen                          !
 ! X52   R(52,-1)                6.7916         Frozen                          !
 ! Y52   R(52,-2)               -2.4073         Frozen                          !
 ! Z52   R(52,-3)               -0.0226         Frozen                          !
 ! X53   R(53,-1)                3.6146         Frozen                          !
 ! Y53   R(53,-2)               -2.9881         Frozen                          !
 ! Z53   R(53,-3)               -1.5314         Frozen                          !
 ! X54   R(54,-1)                4.3945         Frozen                          !
 ! Y54   R(54,-2)               -2.6116         Frozen                          !
 ! Z54   R(54,-3)               -1.098          Frozen                          !
 ! X55   R(55,-1)                3.9279         Frozen                          !
 ! Y55   R(55,-2)               -3.7323         Frozen                          !
 ! Z55   R(55,-3)               -2.0523         Frozen                          !
 ! X56   R(56,-1)                2.8508         Frozen                          !
 ! Y56   R(56,-2)               -0.2986         Frozen                          !
 ! Z56   R(56,-3)                5.662          Frozen                          !
 ! X57   R(57,-1)                3.3094         Frozen                          !
 ! Y57   R(57,-2)                0.4895         Frozen                          !
 ! Z57   R(57,-3)                5.3537         Frozen                          !
 ! X58   R(58,-1)                3.389          Frozen                          !
 ! Y58   R(58,-2)               -0.6856         Frozen                          !
 ! Z58   R(58,-3)                6.3579         Frozen                          !
 ! X59   R(59,-1)                3.2585         Frozen                          !
 ! Y59   R(59,-2)                0.0791         Frozen                          !
 ! Z59   R(59,-3)               -5.588          Frozen                          !
 ! X60   R(60,-1)                2.9083         Frozen                          !
 ! Y60   R(60,-2)                0.0447         Frozen                          !
 ! Z60   R(60,-3)               -6.4828         Frozen                          !
 ! X61   R(61,-1)                3.9848         Frozen                          !
 ! Y61   R(61,-2)               -0.5499         Frozen                          !
 ! Z61   R(61,-3)               -5.5423         Frozen                          !
 ! X62   R(62,-1)                0.1379         Frozen                          !
 ! Y62   R(62,-2)               -5.7953         Frozen                          !
 ! Z62   R(62,-3)                0.6357         Frozen                          !
 ! X63   R(63,-1)                0.0184         Frozen                          !
 ! Y63   R(63,-2)               -6.4555         Frozen                          !
 ! Z63   R(63,-3)                1.3243         Frozen                          !
 ! X64   R(64,-1)                0.4088         Frozen                          !
 ! Y64   R(64,-2)               -6.2657         Frozen                          !
 ! Z64   R(64,-3)               -0.1576         Frozen                          !
 ! X65   R(65,-1)                3.6778         Frozen                          !
 ! Y65   R(65,-2)                6.3075         Frozen                          !
 ! Z65   R(65,-3)               -0.7036         Frozen                          !
 ! X66   R(66,-1)                3.4012         Frozen                          !
 ! Y66   R(66,-2)                6.8943         Frozen                          !
 ! Z66   R(66,-3)                0.0071         Frozen                          !
 ! X67   R(67,-1)                4.6311         Frozen                          !
 ! Y67   R(67,-2)                6.1987         Frozen                          !
 ! Z67   R(67,-3)               -0.6308         Frozen                          !
 ! X68   R(68,-1)               -0.8001         Frozen                          !
 ! Y68   R(68,-2)               -3.1075         Frozen                          !
 ! Z68   R(68,-3)               -3.7222         Frozen                          !
 ! X69   R(69,-1)               -1.441          Frozen                          !
 ! Y69   R(69,-2)               -2.8801         Frozen                          !
 ! Z69   R(69,-3)               -4.4022         Frozen                          !
 ! X70   R(70,-1)               -0.2863         Frozen                          !
 ! Y70   R(70,-2)               -3.8469         Frozen                          !
 ! Z70   R(70,-3)               -4.0595         Frozen                          !
 ! X71   R(71,-1)               -1.9665         Frozen                          !
 ! Y71   R(71,-2)               -2.9019         Frozen                          !
 ! Z71   R(71,-3)                3.9616         Frozen                          !
 ! X72   R(72,-1)               -2.7044         Frozen                          !
 ! Y72   R(72,-2)               -2.5216         Frozen                          !
 ! Z72   R(72,-3)                4.4473         Frozen                          !
 ! X73   R(73,-1)               -1.5218         Frozen                          !
 ! Y73   R(73,-2)               -3.5073         Frozen                          !
 ! Z73   R(73,-3)                4.5623         Frozen                          !
 ! X74   R(74,-1)               -4.866          Frozen                          !
 ! Y74   R(74,-2)                6.0008         Frozen                          !
 ! Z74   R(74,-3)                0.3893         Frozen                          !
 ! X75   R(75,-1)               -5.1296         Frozen                          !
 ! Y75   R(75,-2)                6.4398         Frozen                          !
 ! Z75   R(75,-3)               -0.4249         Frozen                          !
 ! X76   R(76,-1)               -4.0735         Frozen                          !
 ! Y76   R(76,-2)                6.4438         Frozen                          !
 ! Z76   R(76,-3)                0.7104         Frozen                          !
 ! X77   R(77,-1)               -8.3645         Frozen                          !
 ! Y77   R(77,-2)               -1.9788         Frozen                          !
 ! Z77   R(77,-3)               -2.0739         Frozen                          !
 ! X78   R(78,-1)               -7.5356         Frozen                          !
 ! Y78   R(78,-2)               -1.565          Frozen                          !
 ! Z78   R(78,-3)               -2.3346         Frozen                          !
 ! X79   R(79,-1)               -8.1687         Frozen                          !
 ! Y79   R(79,-2)               -2.8993         Frozen                          !
 ! Z79   R(79,-3)               -1.8743         Frozen                          !
 ! X80   R(80,-1)               -4.8328         Frozen                          !
 ! Y80   R(80,-2)                3.1901         Frozen                          !
 ! Z80   R(80,-3)                0.5682         Frozen                          !
 ! X81   R(81,-1)               -4.9181         Frozen                          !
 ! Y81   R(81,-2)                4.1665         Frozen                          !
 ! Z81   R(81,-3)                0.5781         Frozen                          !
 ! X82   R(82,-1)               -5.5301         Frozen                          !
 ! Y82   R(82,-2)                2.8249         Frozen                          !
 ! Z82   R(82,-3)                1.1514         Frozen                          !
 ! X83   R(83,-1)                8.1771         Frozen                          !
 ! Y83   R(83,-2)               -3.4434         Frozen                          !
 ! Z83   R(83,-3)                0.6647         Frozen                          !
 ! X84   R(84,-1)                8.0696         Frozen                          !
 ! Y84   R(84,-2)               -3.694          Frozen                          !
 ! Z84   R(84,-3)                1.5883         Frozen                          !
 ! X85   R(85,-1)                8.36           Frozen                          !
 ! Y85   R(85,-2)               -4.2491         Frozen                          !
 ! Z85   R(85,-3)                0.1708         Frozen                          !
 ! X86   R(86,-1)                4.6667         Frozen                          !
 ! Y86   R(86,-2)               -5.0693         Frozen                          !
 ! Z86   R(86,-3)               -3.319          Frozen                          !
 ! X87   R(87,-1)                5.3277         Frozen                          !
 ! Y87   R(87,-2)               -4.7683         Frozen                          !
 ! Z87   R(87,-3)               -3.9499         Frozen                          !
 ! X88   R(88,-1)                4.0389         Frozen                          !
 ! Y88   R(88,-2)               -5.613          Frozen                          !
 ! Z88   R(88,-3)               -3.8041         Frozen                          !
 ! X89   R(89,-1)                4.537          Frozen                          !
 ! Y89   R(89,-2)                1.8519         Frozen                          !
 ! Z89   R(89,-3)                4.8608         Frozen                          !
 ! X90   R(90,-1)                4.2868         Frozen                          !
 ! Y90   R(90,-2)                2.766          Frozen                          !
 ! Z90   R(90,-3)                4.6944         Frozen                          !
 ! X91   R(91,-1)                5.1427         Frozen                          !
 ! Y91   R(91,-2)                1.5914         Frozen                          !
 ! Z91   R(91,-3)                4.1592         Frozen                          !
 ! X92   R(92,-1)                6.7251         Frozen                          !
 ! Y92   R(92,-2)                3.4463         Frozen                          !
 ! Z92   R(92,-3)               -3.7944         Frozen                          !
 ! X93   R(93,-1)                6.0109         Frozen                          !
 ! Y93   R(93,-2)                3.673          Frozen                          !
 ! Z93   R(93,-3)               -4.3992         Frozen                          !
 ! X94   R(94,-1)                6.4013         Frozen                          !
 ! Y94   R(94,-2)                2.7243         Frozen                          !
 ! Z94   R(94,-3)               -3.2446         Frozen                          !
 ! X95   R(95,-1)               -0.1859         Frozen                          !
 ! Y95   R(95,-2)               -7.7869         Frozen                          !
 ! Z95   R(95,-3)                2.6869         Frozen                          !
 ! X96   R(96,-1)                0.3441         Frozen                          !
 ! Y96   R(96,-2)               -7.6795         Frozen                          !
 ! Z96   R(96,-3)                3.4829         Frozen                          !
 ! X97   R(97,-1)               -1.0508         Frozen                          !
 ! Y97   R(97,-2)               -8.1097         Frozen                          !
 ! Z97   R(97,-3)                2.9599         Frozen                          !
 ! X98   R(98,-1)                2.834          Frozen                          !
 ! Y98   R(98,-2)                7.9808         Frozen                          !
 ! Z98   R(98,-3)                1.3952         Frozen                          !
 ! X99   R(99,-1)                2.7586         Frozen                          !
 ! Y99   R(99,-2)                8.9347         Frozen                          !
 ! Z99   R(99,-3)                1.299          Frozen                          !
 ! X100  R(100,-1)               2.0785         Frozen                          !
 ! Y100  R(100,-2)               7.6851         Frozen                          !
 ! Z100  R(100,-3)               1.9131         Frozen                          !
 ! X101  R(101,-1)              -2.7914         Frozen                          !
 ! Y101  R(101,-2)              -2.5251         Frozen                          !
 ! Z101  R(101,-3)              -5.6907         Frozen                          !
 ! X102  R(102,-1)              -2.7942         Frozen                          !
 ! Y102  R(102,-2)              -1.6431         Frozen                          !
 ! Z102  R(102,-3)              -6.0756         Frozen                          !
 ! X103  R(103,-1)              -3.6639         Frozen                          !
 ! Y103  R(103,-2)              -2.6707         Frozen                          !
 ! Z103  R(103,-3)              -5.3117         Frozen                          !
 ! X104  R(104,-1)              -1.5979         Frozen                          !
 ! Y104  R(104,-2)              -0.1275         Frozen                          !
 ! Z104  R(104,-3)               8.3121         Frozen                          !
 ! X105  R(105,-1)              -1.2165         Frozen                          !
 ! Y105  R(105,-2)               0.6434         Frozen                          !
 ! Z105  R(105,-3)               7.879          Frozen                          !
 ! X106  R(106,-1)              -0.8996         Frozen                          !
 ! Y106  R(106,-2)              -0.7875         Frozen                          !
 ! Z106  R(106,-3)               8.3719         Frozen                          !
 ! X107  R(107,-1)              -0.9662         Frozen                          !
 ! Y107  R(107,-2)               8.9938         Frozen                          !
 ! Z107  R(107,-3)              -1.6418         Frozen                          !
 ! X108  R(108,-1)              -0.6702         Frozen                          !
 ! Y108  R(108,-2)               9.6296         Frozen                          !
 ! Z108  R(108,-3)              -2.2998         Frozen                          !
 ! X109  R(109,-1)              -0.6256         Frozen                          !
 ! Y109  R(109,-2)               8.1331         Frozen                          !
 ! Z109  R(109,-3)              -1.9085         Frozen                          !
 ! X110  R(110,-1)              -7.4997         Frozen                          !
 ! Y110  R(110,-2)              -4.6784         Frozen                          !
 ! Z110  R(110,-3)              -1.5176         Frozen                          !
 ! X111  R(111,-1)              -7.5594         Frozen                          !
 ! Y111  R(111,-2)              -5.1126         Frozen                          !
 ! Z111  R(111,-3)              -0.6609         Frozen                          !
 ! X112  R(112,-1)              -7.3107         Frozen                          !
 ! Y112  R(112,-2)              -5.3604         Frozen                          !
 ! Z112  R(112,-3)              -2.1698         Frozen                          !
 ! X113  R(113,-1)              -6.8386         Frozen                          !
 ! Y113  R(113,-2)               1.9845         Frozen                          !
 ! Z113  R(113,-3)               2.2165         Frozen                          !
 ! X114  R(114,-1)              -6.508          Frozen                          !
 ! Y114  R(114,-2)               1.5243         Frozen                          !
 ! Z114  R(114,-3)               2.9945         Frozen                          !
 ! X115  R(115,-1)              -7.4131         Frozen                          !
 ! Y115  R(115,-2)               1.3692         Frozen                          !
 ! Z115  R(115,-3)               1.7494         Frozen                          !
 ! X116  R(116,-1)              -5.1406         Frozen                          !
 ! Y116  R(116,-2)               2.6708         Frozen                          !
 ! Z116  R(116,-3)              -2.1642         Frozen                          !
 ! X117  R(117,-1)              -6.0826         Frozen                          !
 ! Y117  R(117,-2)               2.7428         Frozen                          !
 ! Z117  R(117,-3)              -2.3371         Frozen                          !
 ! X118  R(118,-1)              -5.0304         Frozen                          !
 ! Y118  R(118,-2)               2.7905         Frozen                          !
 ! Z118  R(118,-3)              -1.2025         Frozen                          !
 ! R1    R(1,2)                  1.4421         estimate D2E/DX2                !
 ! R2    R(1,12)                 1.445          estimate D2E/DX2                !
 ! R3    R(1,22)                 1.441          estimate D2E/DX2                !
 ! R4    R(2,3)                  1.5355         estimate D2E/DX2                !
 ! R5    R(2,4)                  1.3914         estimate D2E/DX2                !
 ! R6    R(2,5)                  1.0991         estimate D2E/DX2                !
 ! R7    R(3,6)                  1.5242         estimate D2E/DX2                !
 ! R8    R(3,7)                  1.1004         estimate D2E/DX2                !
 ! R9    R(3,8)                  1.1022         estimate D2E/DX2                !
 ! R10   R(4,32)                 2.2064         Frozen                          !
 ! R11   R(4,33)                 2.1241         estimate D2E/DX2                !
 ! R12   R(4,42)                 1.9978         estimate D2E/DX2                !
 ! R13   R(5,49)                 2.1449         estimate D2E/DX2                !
 ! R14   R(6,9)                  1.0987         estimate D2E/DX2                !
 ! R15   R(6,10)                 1.1007         estimate D2E/DX2                !
 ! R16   R(6,11)                 1.1004         estimate D2E/DX2                !
 ! R17   R(8,68)                 2.5072         estimate D2E/DX2                !
 ! R18   R(9,59)                 2.4499         estimate D2E/DX2                !
 ! R19   R(12,13)                1.535          estimate D2E/DX2                !
 ! R20   R(12,14)                1.1013         estimate D2E/DX2                !
 ! R21   R(12,15)                1.0989         estimate D2E/DX2                !
 ! R22   R(13,16)                1.5246         estimate D2E/DX2                !
 ! R23   R(13,17)                1.0998         estimate D2E/DX2                !
 ! R24   R(13,18)                1.1001         estimate D2E/DX2                !
 ! R25   R(16,19)                1.0987         estimate D2E/DX2                !
 ! R26   R(16,20)                1.0998         estimate D2E/DX2                !
 ! R27   R(16,21)                1.1011         estimate D2E/DX2                !
 ! R28   R(17,62)                2.6173         estimate D2E/DX2                !
 ! R29   R(18,53)                2.4349         estimate D2E/DX2                !
 ! R30   R(20,54)                2.4865         estimate D2E/DX2                !
 ! R31   R(21,56)                3.6421         estimate D2E/DX2                !
 ! R32   R(22,23)                1.542          estimate D2E/DX2                !
 ! R33   R(22,24)                1.1026         estimate D2E/DX2                !
 ! R34   R(22,25)                1.1003         estimate D2E/DX2                !
 ! R35   R(23,26)                1.5247         estimate D2E/DX2                !
 ! R36   R(23,27)                1.1016         estimate D2E/DX2                !
 ! R37   R(23,28)                1.1012         estimate D2E/DX2                !
 ! R38   R(25,71)                2.4818         estimate D2E/DX2                !
 ! R39   R(26,29)                1.0983         estimate D2E/DX2                !
 ! R40   R(26,30)                1.1001         estimate D2E/DX2                !
 ! R41   R(26,31)                1.0996         estimate D2E/DX2                !
 ! R42   R(28,62)                2.6476         estimate D2E/DX2                !
 ! R43   R(29,110)               4.1597         estimate D2E/DX2                !
 ! R44   R(29,111)               4.1907         estimate D2E/DX2                !
 ! R45   R(31,78)                4.2673         estimate D2E/DX2                !
 ! R46   R(32,33)                0.9755         estimate D2E/DX2                !
 ! R47   R(32,34)                0.9785         estimate D2E/DX2                !
 ! R48   R(32,36)                1.832          estimate D2E/DX2                !
 ! R49   R(33,38)                1.9243         estimate D2E/DX2                !
 ! R50   R(34,44)                1.821          estimate D2E/DX2                !
 ! R51   R(35,36)                0.9766         estimate D2E/DX2                !
 ! R52   R(35,37)                0.9653         estimate D2E/DX2                !
 ! R53   R(35,39)                1.8339         estimate D2E/DX2                !
 ! R54   R(37,105)               4.6922         estimate D2E/DX2                !
 ! R55   R(38,39)                0.9774         estimate D2E/DX2                !
 ! R56   R(38,40)                0.9827         estimate D2E/DX2                !
 ! R57   R(38,49)                1.8123         estimate D2E/DX2                !
 ! R58   R(40,80)                1.7808         estimate D2E/DX2                !
 ! R59   R(41,42)                0.9683         estimate D2E/DX2                !
 ! R60   R(41,43)                0.9736         estimate D2E/DX2                !
 ! R61   R(43,44)                1.9042         estimate D2E/DX2                !
 ! R62   R(43,94)                4.6925         estimate D2E/DX2                !
 ! R63   R(44,45)                0.9904         estimate D2E/DX2                !
 ! R64   R(44,46)                0.9657         estimate D2E/DX2                !
 ! R65   R(45,65)                1.7211         estimate D2E/DX2                !
 ! R66   R(46,93)                4.7815         estimate D2E/DX2                !
 ! R67   R(46,109)               4.7811         estimate D2E/DX2                !
 ! R68   R(47,48)                0.9725         estimate D2E/DX2                !
 ! R69   R(47,49)                0.9763         estimate D2E/DX2                !
 ! R70   R(48,78)                4.2938         estimate D2E/DX2                !
 ! R71   R(50,51)                0.9623         estimate D2E/DX2                !
 ! R72   R(50,52)                0.9617         estimate D2E/DX2                !
 ! R73   R(50,54)                1.9193         estimate D2E/DX2                !
 ! R74   R(52,83)                1.8616         estimate D2E/DX2                !
 ! R75   R(53,54)                0.9685         estimate D2E/DX2                !
 ! R76   R(53,55)                0.9609         estimate D2E/DX2                !
 ! R77   R(55,86)                1.9845         estimate D2E/DX2                !
 ! R78   R(56,57)                0.9625         estimate D2E/DX2                !
 ! R79   R(56,58)                0.9611         estimate D2E/DX2                !
 ! R80   R(56,105)               4.727          estimate D2E/DX2                !
 ! R81   R(56,106)               4.6527         estimate D2E/DX2                !
 ! R82   R(57,89)                1.899          estimate D2E/DX2                !
 ! R83   R(58,106)               4.7391         estimate D2E/DX2                !
 ! R84   R(59,60)                0.9615         estimate D2E/DX2                !
 ! R85   R(59,61)                0.9619         estimate D2E/DX2                !
 ! R86   R(59,93)                4.6804         estimate D2E/DX2                !
 ! R87   R(62,63)                0.9614         estimate D2E/DX2                !
 ! R88   R(62,64)                0.9613         estimate D2E/DX2                !
 ! R89   R(63,95)                1.916          estimate D2E/DX2                !
 ! R90   R(65,66)                0.9622         estimate D2E/DX2                !
 ! R91   R(65,67)                0.9623         estimate D2E/DX2                !
 ! R92   R(66,98)                1.8519         estimate D2E/DX2                !
 ! R93   R(66,109)               4.6281         estimate D2E/DX2                !
 ! R94   R(67,92)                4.6871         estimate D2E/DX2                !
 ! R95   R(67,93)                4.7417         estimate D2E/DX2                !
 ! R96   R(68,69)                0.9617         estimate D2E/DX2                !
 ! R97   R(68,70)                0.9615         estimate D2E/DX2                !
 ! R98   R(69,101)               1.9            estimate D2E/DX2                !
 ! R99   R(71,72)                0.9618         estimate D2E/DX2                !
 ! R100  R(71,73)                0.9618         estimate D2E/DX2                !
 ! R101  R(72,104)               4.679          estimate D2E/DX2                !
 ! R102  R(74,75)                0.9619         estimate D2E/DX2                !
 ! R103  R(74,76)                0.963          estimate D2E/DX2                !
 ! R104  R(74,81)                1.8447         estimate D2E/DX2                !
 ! R105  R(76,107)               4.6573         estimate D2E/DX2                !
 ! R106  R(76,109)               4.6476         estimate D2E/DX2                !
 ! R107  R(77,78)                0.9624         estimate D2E/DX2                !
 ! R108  R(77,79)                0.962          estimate D2E/DX2                !
 ! R109  R(79,110)               1.9339         estimate D2E/DX2                !
 ! R110  R(80,81)                0.9802         estimate D2E/DX2                !
 ! R111  R(80,82)                0.9797         estimate D2E/DX2                !
 ! R112  R(80,118)               1.826          estimate D2E/DX2                !
 ! R113  R(82,113)               1.8849         estimate D2E/DX2                !
 ! R114  R(83,84)                0.9629         estimate D2E/DX2                !
 ! R115  R(83,85)                0.9625         estimate D2E/DX2                !
 ! R116  R(86,87)                0.962          estimate D2E/DX2                !
 ! R117  R(86,88)                0.9618         estimate D2E/DX2                !
 ! R118  R(89,90)                0.9622         estimate D2E/DX2                !
 ! R119  R(89,91)                0.9628         estimate D2E/DX2                !
 ! R120  R(92,93)                0.9629         estimate D2E/DX2                !
 ! R121  R(92,94)                0.9635         estimate D2E/DX2                !
 ! R122  R(95,96)                0.9623         estimate D2E/DX2                !
 ! R123  R(95,97)                0.9627         estimate D2E/DX2                !
 ! R124  R(98,99)                0.9617         estimate D2E/DX2                !
 ! R125  R(98,100)               0.9626         estimate D2E/DX2                !
 ! R126  R(99,107)               4.7461         estimate D2E/DX2                !
 ! R127  R(101,102)              0.9623         estimate D2E/DX2                !
 ! R128  R(101,103)              0.9623         estimate D2E/DX2                !
 ! R129  R(104,105)              0.963          estimate D2E/DX2                !
 ! R130  R(104,106)              0.9627         estimate D2E/DX2                !
 ! R131  R(107,108)              0.9617         estimate D2E/DX2                !
 ! R132  R(107,109)              0.9633         estimate D2E/DX2                !
 ! R133  R(110,111)              0.9623         estimate D2E/DX2                !
 ! R134  R(110,112)              0.9625         estimate D2E/DX2                !
 ! R135  R(113,114)              0.9625         estimate D2E/DX2                !
 ! R136  R(113,115)              0.9628         estimate D2E/DX2                !
 ! R137  R(116,117)              0.9605         estimate D2E/DX2                !
 ! R138  R(116,118)              0.9754         estimate D2E/DX2                !
 ! A1    A(2,1,12)             119.6974         estimate D2E/DX2                !
 ! A2    A(2,1,22)             119.401          estimate D2E/DX2                !
 ! A3    A(12,1,22)            120.8934         estimate D2E/DX2                !
 ! A4    A(1,2,3)              113.3513         estimate D2E/DX2                !
 ! A5    A(1,2,4)              105.0606         estimate D2E/DX2                !
 ! A6    A(1,2,5)              108.3539         estimate D2E/DX2                !
 ! A7    A(3,2,4)              112.6629         estimate D2E/DX2                !
 ! A8    A(3,2,5)              111.4494         estimate D2E/DX2                !
 ! A9    A(4,2,5)              105.445          estimate D2E/DX2                !
 ! A10   A(2,3,6)              109.3804         estimate D2E/DX2                !
 ! A11   A(2,3,7)              110.0806         estimate D2E/DX2                !
 ! A12   A(2,3,8)              108.9921         estimate D2E/DX2                !
 ! A13   A(6,3,7)              109.9835         estimate D2E/DX2                !
 ! A14   A(6,3,8)              110.8044         estimate D2E/DX2                !
 ! A15   A(7,3,8)              107.5765         estimate D2E/DX2                !
 ! A16   A(2,4,33)             139.4784         estimate D2E/DX2                !
 ! A17   A(2,4,42)             133.5371         estimate D2E/DX2                !
 ! A18   A(33,4,42)             85.5476         estimate D2E/DX2                !
 ! A19   A(2,5,49)             145.7682         estimate D2E/DX2                !
 ! A20   A(3,6,9)              111.4292         estimate D2E/DX2                !
 ! A21   A(3,6,10)             110.9687         estimate D2E/DX2                !
 ! A22   A(3,6,11)             109.7225         estimate D2E/DX2                !
 ! A23   A(9,6,10)             108.1619         estimate D2E/DX2                !
 ! A24   A(9,6,11)             108.3766         estimate D2E/DX2                !
 ! A25   A(10,6,11)            108.0796         estimate D2E/DX2                !
 ! A26   A(1,12,13)            112.6325         estimate D2E/DX2                !
 ! A27   A(1,12,14)            106.2642         estimate D2E/DX2                !
 ! A28   A(1,12,15)            107.5722         estimate D2E/DX2                !
 ! A29   A(13,12,14)           110.2504         estimate D2E/DX2                !
 ! A30   A(13,12,15)           111.0734         estimate D2E/DX2                !
 ! A31   A(14,12,15)           108.8547         estimate D2E/DX2                !
 ! A32   A(12,13,16)           109.8945         estimate D2E/DX2                !
 ! A33   A(12,13,17)           110.2192         estimate D2E/DX2                !
 ! A34   A(12,13,18)           109.6392         estimate D2E/DX2                !
 ! A35   A(16,13,17)           110.7006         estimate D2E/DX2                !
 ! A36   A(16,13,18)           108.5019         estimate D2E/DX2                !
 ! A37   A(17,13,18)           107.8379         estimate D2E/DX2                !
 ! A38   A(13,16,19)           109.8631         estimate D2E/DX2                !
 ! A39   A(13,16,20)           110.9393         estimate D2E/DX2                !
 ! A40   A(13,16,21)           111.6337         estimate D2E/DX2                !
 ! A41   A(19,16,20)           107.5358         estimate D2E/DX2                !
 ! A42   A(19,16,21)           108.248          estimate D2E/DX2                !
 ! A43   A(20,16,21)           108.4915         estimate D2E/DX2                !
 ! A44   A(13,17,62)           130.7126         estimate D2E/DX2                !
 ! A45   A(13,18,53)           135.0045         estimate D2E/DX2                !
 ! A46   A(16,20,54)           125.5018         estimate D2E/DX2                !
 ! A47   A(16,21,56)           159.145          estimate D2E/DX2                !
 ! A48   A(1,22,23)            111.8923         estimate D2E/DX2                !
 ! A49   A(1,22,24)            106.4908         estimate D2E/DX2                !
 ! A50   A(1,22,25)            109.2561         estimate D2E/DX2                !
 ! A51   A(23,22,24)           108.5122         estimate D2E/DX2                !
 ! A52   A(23,22,25)           110.7176         estimate D2E/DX2                !
 ! A53   A(24,22,25)           109.8719         estimate D2E/DX2                !
 ! A54   A(22,23,26)           109.0565         estimate D2E/DX2                !
 ! A55   A(22,23,27)           109.99           estimate D2E/DX2                !
 ! A56   A(22,23,28)           109.3524         estimate D2E/DX2                !
 ! A57   A(26,23,27)           110.5454         estimate D2E/DX2                !
 ! A58   A(26,23,28)           110.5777         estimate D2E/DX2                !
 ! A59   A(27,23,28)           107.2988         estimate D2E/DX2                !
 ! A60   A(22,25,71)           162.0938         estimate D2E/DX2                !
 ! A61   A(23,26,29)           110.8761         estimate D2E/DX2                !
 ! A62   A(23,26,30)           110.5877         estimate D2E/DX2                !
 ! A63   A(23,26,31)           110.2882         estimate D2E/DX2                !
 ! A64   A(29,26,30)           108.2069         estimate D2E/DX2                !
 ! A65   A(29,26,31)           108.2514         estimate D2E/DX2                !
 ! A66   A(30,26,31)           108.5498         estimate D2E/DX2                !
 ! A67   A(26,29,110)          120.5046         estimate D2E/DX2                !
 ! A68   A(26,29,111)          118.6689         estimate D2E/DX2                !
 ! A69   A(26,31,78)           140.3468         estimate D2E/DX2                !
 ! A70   A(33,32,34)           107.7611         estimate D2E/DX2                !
 ! A71   A(33,32,36)            91.0298         estimate D2E/DX2                !
 ! A72   A(34,32,36)           151.863          estimate D2E/DX2                !
 ! A73   A(4,33,32)             81.7423         estimate D2E/DX2                !
 ! A74   A(4,33,38)             88.0594         estimate D2E/DX2                !
 ! A75   A(32,33,38)           147.6155         estimate D2E/DX2                !
 ! A76   A(36,35,37)           105.7609         estimate D2E/DX2                !
 ! A77   A(36,35,39)            89.0177         estimate D2E/DX2                !
 ! A78   A(37,35,39)           121.2992         estimate D2E/DX2                !
 ! A79   A(32,36,35)           148.3731         estimate D2E/DX2                !
 ! A80   A(33,38,39)            86.42           estimate D2E/DX2                !
 ! A81   A(33,38,40)           124.2851         estimate D2E/DX2                !
 ! A82   A(33,38,49)           130.1708         estimate D2E/DX2                !
 ! A83   A(39,38,40)           107.2469         estimate D2E/DX2                !
 ! A84   A(39,38,49)           112.8134         estimate D2E/DX2                !
 ! A85   A(40,38,49)            94.5044         estimate D2E/DX2                !
 ! A86   A(35,39,38)           151.1908         estimate D2E/DX2                !
 ! A87   A(38,40,80)           163.9154         estimate D2E/DX2                !
 ! A88   A(42,41,43)           100.5021         estimate D2E/DX2                !
 ! A89   A(4,42,41)            102.2103         estimate D2E/DX2                !
 ! A90   A(41,43,44)           152.7955         estimate D2E/DX2                !
 ! A91   A(41,43,94)           121.4986         estimate D2E/DX2                !
 ! A92   A(44,43,94)            85.6993         estimate D2E/DX2                !
 ! A93   A(34,44,43)            76.8228         estimate D2E/DX2                !
 ! A94   A(34,44,45)           122.2854         estimate D2E/DX2                !
 ! A95   A(34,44,46)           112.3763         estimate D2E/DX2                !
 ! A96   A(43,44,45)           122.5858         estimate D2E/DX2                !
 ! A97   A(43,44,46)           116.9004         estimate D2E/DX2                !
 ! A98   A(45,44,46)           104.5912         estimate D2E/DX2                !
 ! A99   A(44,46,93)           104.631          estimate D2E/DX2                !
 ! A100  A(44,46,109)          101.72           estimate D2E/DX2                !
 ! A101  A(93,46,109)          122.2773         estimate D2E/DX2                !
 ! A102  A(48,47,49)           102.5105         estimate D2E/DX2                !
 ! A103  A(47,48,78)           100.3661         estimate D2E/DX2                !
 ! A104  A(5,49,38)             90.1097         estimate D2E/DX2                !
 ! A105  A(5,49,47)             93.6629         estimate D2E/DX2                !
 ! A106  A(51,50,52)           107.3028         estimate D2E/DX2                !
 ! A107  A(51,50,54)           120.0081         estimate D2E/DX2                !
 ! A108  A(52,50,54)           129.2508         estimate D2E/DX2                !
 ! A109  A(18,53,54)           111.1113         estimate D2E/DX2                !
 ! A110  A(18,53,55)           128.1992         estimate D2E/DX2                !
 ! A111  A(54,53,55)           106.3195         estimate D2E/DX2                !
 ! A112  A(20,54,50)            80.5744         estimate D2E/DX2                !
 ! A113  A(20,54,53)           102.9298         estimate D2E/DX2                !
 ! A114  A(21,56,57)           105.1289         estimate D2E/DX2                !
 ! A115  A(21,56,58)           110.0494         estimate D2E/DX2                !
 ! A116  A(21,56,105)          117.8753         estimate D2E/DX2                !
 ! A117  A(21,56,106)          111.8891         estimate D2E/DX2                !
 ! A118  A(57,56,58)           107.1538         estimate D2E/DX2                !
 ! A119  A(57,56,105)          113.394          estimate D2E/DX2                !
 ! A120  A(57,56,106)          131.0471         estimate D2E/DX2                !
 ! A121  A(58,56,105)          102.8577         estimate D2E/DX2                !
 ! A122  A(105,56,106)          18.9544         estimate D2E/DX2                !
 ! A123  A(9,59,60)            120.4015         estimate D2E/DX2                !
 ! A124  A(9,59,61)            118.9611         estimate D2E/DX2                !
 ! A125  A(9,59,93)             95.7101         estimate D2E/DX2                !
 ! A126  A(60,59,61)           107.2126         estimate D2E/DX2                !
 ! A127  A(60,59,93)           118.5573         estimate D2E/DX2                !
 ! A128  A(61,59,93)            92.6318         estimate D2E/DX2                !
 ! A129  A(17,62,28)            51.6019         estimate D2E/DX2                !
 ! A130  A(17,62,63)           118.0066         estimate D2E/DX2                !
 ! A131  A(17,62,64)           128.4758         estimate D2E/DX2                !
 ! A132  A(28,62,63)           133.3184         estimate D2E/DX2                !
 ! A133  A(28,62,64)           111.3286         estimate D2E/DX2                !
 ! A134  A(63,62,64)           106.8563         estimate D2E/DX2                !
 ! A135  A(45,65,66)           114.9911         estimate D2E/DX2                !
 ! A136  A(45,65,67)           115.6466         estimate D2E/DX2                !
 ! A137  A(66,65,67)           107.3257         estimate D2E/DX2                !
 ! A138  A(65,66,109)           96.1778         estimate D2E/DX2                !
 ! A139  A(98,66,109)           83.4953         estimate D2E/DX2                !
 ! A140  A(65,67,92)           117.2525         estimate D2E/DX2                !
 ! A141  A(65,67,93)           106.7615         estimate D2E/DX2                !
 ! A142  A(8,68,69)            123.3624         estimate D2E/DX2                !
 ! A143  A(8,68,70)            117.1227         estimate D2E/DX2                !
 ! A144  A(69,68,70)           106.8564         estimate D2E/DX2                !
 ! A145  A(25,71,72)           116.4406         estimate D2E/DX2                !
 ! A146  A(25,71,73)           135.3099         estimate D2E/DX2                !
 ! A147  A(72,71,73)           106.7535         estimate D2E/DX2                !
 ! A148  A(71,72,104)          115.9761         estimate D2E/DX2                !
 ! A149  A(75,74,76)           107.3239         estimate D2E/DX2                !
 ! A150  A(75,74,81)           122.1921         estimate D2E/DX2                !
 ! A151  A(76,74,81)           116.5221         estimate D2E/DX2                !
 ! A152  A(74,76,107)          129.2391         estimate D2E/DX2                !
 ! A153  A(74,76,109)          126.1466         estimate D2E/DX2                !
 ! A154  A(78,77,79)           106.9968         estimate D2E/DX2                !
 ! A155  A(31,78,48)            50.9074         estimate D2E/DX2                !
 ! A156  A(31,78,77)           121.2523         estimate D2E/DX2                !
 ! A157  A(48,78,77)           156.0375         estimate D2E/DX2                !
 ! A158  A(40,80,81)           115.6384         estimate D2E/DX2                !
 ! A159  A(40,80,82)           121.0705         estimate D2E/DX2                !
 ! A160  A(40,80,118)           93.0518         estimate D2E/DX2                !
 ! A161  A(81,80,82)           107.6609         estimate D2E/DX2                !
 ! A162  A(81,80,118)          102.6157         estimate D2E/DX2                !
 ! A163  A(82,80,118)          114.7485         estimate D2E/DX2                !
 ! A164  A(52,83,84)           114.5712         estimate D2E/DX2                !
 ! A165  A(52,83,85)           114.696          estimate D2E/DX2                !
 ! A166  A(84,83,85)           107.1884         estimate D2E/DX2                !
 ! A167  A(55,86,87)           117.6222         estimate D2E/DX2                !
 ! A168  A(55,86,88)           117.3734         estimate D2E/DX2                !
 ! A169  A(87,86,88)           107.1363         estimate D2E/DX2                !
 ! A170  A(57,89,90)           123.9397         estimate D2E/DX2                !
 ! A171  A(57,89,91)           113.6898         estimate D2E/DX2                !
 ! A172  A(90,89,91)           107.1293         estimate D2E/DX2                !
 ! A173  A(67,92,94)            84.5355         estimate D2E/DX2                !
 ! A174  A(93,92,94)           106.5963         estimate D2E/DX2                !
 ! A175  A(46,93,59)            72.6199         estimate D2E/DX2                !
 ! A176  A(46,93,67)            44.9282         estimate D2E/DX2                !
 ! A177  A(46,93,92)           108.981          estimate D2E/DX2                !
 ! A178  A(59,93,67)           116.088          estimate D2E/DX2                !
 ! A179  A(59,93,92)           114.5125         estimate D2E/DX2                !
 ! A180  A(43,94,92)           132.7635         estimate D2E/DX2                !
 ! A181  A(63,95,96)           116.8768         estimate D2E/DX2                !
 ! A182  A(63,95,97)           122.0382         estimate D2E/DX2                !
 ! A183  A(96,95,97)           107.3119         estimate D2E/DX2                !
 ! A184  A(66,98,99)           122.0702         estimate D2E/DX2                !
 ! A185  A(66,98,100)          117.6108         estimate D2E/DX2                !
 ! A186  A(99,98,100)          107.2798         estimate D2E/DX2                !
 ! A187  A(98,99,107)           97.8096         estimate D2E/DX2                !
 ! A188  A(69,101,102)         116.3914         estimate D2E/DX2                !
 ! A189  A(69,101,103)         110.4333         estimate D2E/DX2                !
 ! A190  A(102,101,103)        107.0699         estimate D2E/DX2                !
 ! A191  A(72,104,105)          97.5753         estimate D2E/DX2                !
 ! A192  A(72,104,106)          82.6502         estimate D2E/DX2                !
 ! A193  A(105,104,106)        106.8186         estimate D2E/DX2                !
 ! A194  A(37,105,56)           57.3522         estimate D2E/DX2                !
 ! A195  A(37,105,104)         124.825          estimate D2E/DX2                !
 ! A196  A(56,105,104)         113.0942         estimate D2E/DX2                !
 ! A197  A(56,106,104)         118.4582         estimate D2E/DX2                !
 ! A198  A(58,106,104)         127.9756         estimate D2E/DX2                !
 ! A199  A(76,107,99)          101.7641         estimate D2E/DX2                !
 ! A200  A(76,107,108)         155.9067         estimate D2E/DX2                !
 ! A201  A(99,107,108)         100.9915         estimate D2E/DX2                !
 ! A202  A(99,107,109)          83.2799         estimate D2E/DX2                !
 ! A203  A(108,107,109)        107.0051         estimate D2E/DX2                !
 ! A204  A(46,109,66)           46.1126         estimate D2E/DX2                !
 ! A205  A(46,109,76)           95.3807         estimate D2E/DX2                !
 ! A206  A(46,109,107)         160.6914         estimate D2E/DX2                !
 ! A207  A(66,109,76)          108.3577         estimate D2E/DX2                !
 ! A208  A(66,109,107)         115.606          estimate D2E/DX2                !
[...]
  Beta virt. eigenvalues --    1.38658   1.39007   1.39053   1.39075   1.39137
  Beta virt. eigenvalues --    1.39208   1.39387   1.39780   1.39901   1.40362
  Beta virt. eigenvalues --    1.40685   1.40761   1.40970   1.41152   1.41218
  Beta virt. eigenvalues --    1.41414   1.41904   1.42089   1.42237   1.42484
  Beta virt. eigenvalues --    1.43214   1.43778   1.44239   1.44380   1.45327
  Beta virt. eigenvalues --    1.45474   1.46566   1.47129   1.47262   1.47647
  Beta virt. eigenvalues --    1.47827   1.48098   1.48248   1.48422   1.48608
  Beta virt. eigenvalues --    1.48734   1.48981   1.49170   1.49215   1.49408
  Beta virt. eigenvalues --    1.49786   1.50450   1.51553   1.51975   1.53467
  Beta virt. eigenvalues --    1.53994   1.54311   1.55691   1.55863   1.56221
  Beta virt. eigenvalues --    1.57265   1.57507   1.58157   1.58467   1.58654
  Beta virt. eigenvalues --    1.58927   1.59168   1.59393   1.59595   1.60105
  Beta virt. eigenvalues --    1.60507   1.60908   1.61020   1.61108   1.61121
  Beta virt. eigenvalues --    1.61386   1.61947   1.62198   1.62540   1.62612
  Beta virt. eigenvalues --    1.62817   1.63286   1.63637   1.64066   1.64366
  Beta virt. eigenvalues --    1.64769   1.64852   1.65771   1.66083   1.66167
  Beta virt. eigenvalues --    1.66528   1.66711   1.66790   1.67410   1.67586
  Beta virt. eigenvalues --    1.67872   1.68112   1.69028   1.69737   1.70196
  Beta virt. eigenvalues --    1.70274   1.71069   1.71935   1.72755   1.73393
  Beta virt. eigenvalues --    1.75848   1.78241   1.79091   1.79302   1.80360
  Beta virt. eigenvalues --    1.80568   1.80653   1.80817   1.80894   1.81036
  Beta virt. eigenvalues --    1.81104   1.81240   1.81304   1.81350   1.81369
  Beta virt. eigenvalues --    1.81443   1.81449   1.81559   1.81799   1.82120
  Beta virt. eigenvalues --    1.82345   1.82413   1.82575   1.82818   1.82982
  Beta virt. eigenvalues --    1.83381   1.83747   1.84314   1.84387   1.84845
  Beta virt. eigenvalues --    1.84908   1.85346   1.85543   1.85756   1.86370
  Beta virt. eigenvalues --    1.86707   1.87122   1.87236   1.87418   1.88066
  Beta virt. eigenvalues --    1.88232   1.88678   1.89971   1.90407   1.90884
  Beta virt. eigenvalues --    1.91153   1.91443   1.92674   1.92855   1.93337
  Beta virt. eigenvalues --    1.94215   1.95196   1.95634   1.96187   1.96865
  Beta virt. eigenvalues --    1.97900   1.98476   1.98972   1.99623   2.01177
  Beta virt. eigenvalues --    2.01197   2.02505   2.03544   2.03875   2.05195
  Beta virt. eigenvalues --    2.07390   2.08199   2.08971   2.11018   2.14079
  Beta virt. eigenvalues --    2.14565   2.15631   2.21022   2.23817   2.26907
  Beta virt. eigenvalues --    2.27528   2.27635   2.27708   2.27729   2.27859
  Beta virt. eigenvalues --    2.27888   2.27916   2.27954   2.28094   2.28294
  Beta virt. eigenvalues --    2.28627   2.29031   2.29059   2.29235   2.29255
  Beta virt. eigenvalues --    2.29306   2.29403   2.29493   2.29607   2.29686
  Beta virt. eigenvalues --    2.29749   2.30459   2.30717   2.30810   2.30878
  Beta virt. eigenvalues --    2.30989   2.31125   2.31144   2.31245   2.31522
  Beta virt. eigenvalues --    2.31779   2.32146   2.32157   2.32195   2.32252
  Beta virt. eigenvalues --    2.32355   2.32456   2.32482   2.32561   2.32630
  Beta virt. eigenvalues --    2.33831   2.35334   2.36812   2.37947   2.39151
  Beta virt. eigenvalues --    2.39481   2.40539   2.40971   2.41750   2.42272
  Beta virt. eigenvalues --    2.42788   2.42964   2.43244   2.43497   2.44137
  Beta virt. eigenvalues --    2.44742   2.45040   2.45799   2.46324   2.46563
  Beta virt. eigenvalues --    2.47004   2.47069   2.48248   2.48456   2.49002
  Beta virt. eigenvalues --    2.49413   2.49876   2.50437   2.50936   2.52645
  Beta virt. eigenvalues --    2.53454   2.54838   2.56267   2.59883   2.60460
  Beta virt. eigenvalues --    2.60865   2.61359   2.61656   2.62316   2.63015
  Beta virt. eigenvalues --    2.69661   2.70642   2.71890   2.76421   2.76834
  Beta virt. eigenvalues --    2.85331   2.86538   2.87311   2.88179   2.91212
  Beta virt. eigenvalues --    2.92099   2.92683   2.94803   2.95551   2.95827
  Beta virt. eigenvalues --    2.96439   2.97176   2.98486   2.98539   2.98608
  Beta virt. eigenvalues --    2.98672   2.98741   2.98813   2.98841   2.98896
  Beta virt. eigenvalues --    2.98903   2.98969   2.99579   2.99717   2.99961
  Beta virt. eigenvalues --    3.00035   3.00167   3.00581   3.00622   3.00642
  Beta virt. eigenvalues --    3.00714   3.00808   3.01535   3.01733   3.01830
  Beta virt. eigenvalues --    3.02150   3.02262   3.02297   3.02726   3.03368
  Beta virt. eigenvalues --    3.03697   3.03787   3.04208   3.04541   3.05021
  Beta virt. eigenvalues --    3.05218   3.05494   3.05616   3.05683   3.05875
  Beta virt. eigenvalues --    3.05888   3.05907   3.06110   3.06171   3.06261
  Beta virt. eigenvalues --    3.06526   3.07104   3.07321   3.07481   3.07526
  Beta virt. eigenvalues --    3.07724   3.07828   3.07836   3.07936   3.08052
  Beta virt. eigenvalues --    3.08244   3.08492   3.08695   3.08809   3.09233
  Beta virt. eigenvalues --    3.09251   3.09363   3.09705   3.10035   3.10707
  Beta virt. eigenvalues --    3.11745   3.13820   3.20157   3.21235   3.21343
  Beta virt. eigenvalues --    3.21578   3.21758   3.21797   3.21848   3.21865
  Beta virt. eigenvalues --    3.21924   3.22030   3.22067   3.22499   3.22622
  Beta virt. eigenvalues --    3.22742   3.22920   3.23012   3.23119   3.23158
  Beta virt. eigenvalues --    3.23275   3.23570   3.24162   3.24391   3.24446
  Beta virt. eigenvalues --    3.25081   3.25403   3.26279   3.26486   3.28023
  Beta virt. eigenvalues --    3.28075   3.28802   3.30927   3.53814   3.54690
  Beta virt. eigenvalues --    3.55083   3.55317   3.55364   3.55371   3.55459
  Beta virt. eigenvalues --    3.55807   3.56133   3.56147   3.56438   3.56633
  Beta virt. eigenvalues --    3.56831   3.57029   3.57128   3.57257   3.57604
  Beta virt. eigenvalues --    3.58557   3.59176   3.59585   3.59888   3.60090
  Beta virt. eigenvalues --    3.60232   3.60243   3.60444   3.60744   3.61446
  Beta virt. eigenvalues --    3.62556   3.62628   3.82528   3.82643   3.82790
  Beta virt. eigenvalues --    3.82803   3.82841   3.82936   3.83062   3.83169
  Beta virt. eigenvalues --    3.83237   3.83584   3.84036   3.84099   3.84236
  Beta virt. eigenvalues --    3.84272   3.85161   3.85448   3.86169   3.86804
  Beta virt. eigenvalues --    3.86872   3.86968   3.87116   3.87974   3.88190
  Beta virt. eigenvalues --    3.88642   3.91800   3.93166   3.93491   3.95496
  Beta virt. eigenvalues --    3.97681
          Condensed to atoms (all electrons):
          Atomic-Atomic Spin Densities.
 Mulliken charges and spin densities:
               1          2
     1  N   -0.149570   0.838793
     2  C    0.024316  -0.055519
     3  C   -0.097415   0.049392
     4  H    0.003240   0.057086
     5  H    0.054286   0.001420
     6  C   -0.074231   0.005449
     7  H    0.048666  -0.002521
     8  H    0.050891   0.000920
     9  H    0.045816   0.001154
    10  H    0.040239  -0.000366
    11  H    0.005977  -0.000151
    12  C    0.006325  -0.051796
    13  C   -0.097841   0.049072
    14  H    0.083399   0.040445
    15  H    0.071319   0.002681
    16  C   -0.073359   0.007491
    17  H    0.063176  -0.002257
    18  H    0.048869  -0.000694
    19  H    0.046453   0.002053
    20  H    0.035997  -0.000294
    21  H    0.037772  -0.000691
    22  C    0.023879  -0.055285
    23  C   -0.105401   0.058900
    24  H    0.052925   0.033701
    25  H    0.078731   0.007249
    26  C   -0.080978   0.008696
    27  H    0.053134  -0.002484
    28  H    0.054920  -0.001076
    29  H    0.052790   0.002119
    30  H    0.042988  -0.000479
    31  H    0.046172  -0.000439
    32  O   -0.374204   0.003594
    33  H    0.199362   0.000226
    34  H    0.190921   0.000061
    35  O   -0.342320   0.001383
    36  H    0.195685  -0.000391
    37  H    0.216379   0.000768
    38  O   -0.393417   0.000466
    39  H    0.192899  -0.000604
    40  H    0.206085   0.000118
    41  O   -0.356574   0.000840
    42  H    0.177484  -0.000106
    43  H    0.181723   0.000071
    44  O   -0.378868  -0.000000
    45  H    0.204936   0.000001
    46  H    0.216587  -0.000010
    47  O   -0.391426   0.000150
    48  H    0.162790   0.000159
    49  H    0.165285  -0.000044
    50  O   -0.359580  -0.000002
    51  H    0.197968   0.000000
    52  H    0.169416  -0.000000
    53  O   -0.392215   0.000058
    54  H    0.171461   0.000009
    55  H    0.155973  -0.000012
    56  O   -0.409106   0.000036
    57  H    0.165959  -0.000006
    58  H    0.183902   0.000005
    59  O   -0.347882   0.000043
    60  H    0.194218   0.000005
    61  H    0.194359   0.000004
    62  O   -0.362385   0.000056
    63  H    0.162315   0.000017
    64  H    0.185538  -0.000002
    65  O   -0.367938   0.000001
    66  H    0.183693  -0.000000
    67  H    0.208797  -0.000000
    68  O   -0.356602   0.000106
    69  H    0.160385   0.000005
    70  H    0.185486  -0.000003
    71  O   -0.342775   0.000319
    72  H    0.195913   0.000027
    73  H    0.194166   0.000046
    74  O   -0.347130   0.000000
    75  H    0.212092   0.000000
    76  H    0.213071   0.000000
    77  O   -0.410334  -0.000000
    78  H    0.183143   0.000000
    79  H    0.167123   0.000000
    80  O   -0.388381   0.000016
    81  H    0.205512   0.000001
    82  H    0.199846   0.000000
    83  O   -0.347402  -0.000000
    84  H    0.211513   0.000000
    85  H    0.211584  -0.000000
    86  O   -0.348924   0.000001
    87  H    0.204670  -0.000000
    88  H    0.205600   0.000000
    89  O   -0.349724   0.000005
    90  H    0.207695  -0.000000
    91  H    0.207602   0.000001
    92  O   -0.384294  -0.000000
    93  H    0.192042  -0.000000
    94  H    0.192234   0.000000
    95  O   -0.349353   0.000001
    96  H    0.208333   0.000000
    97  H    0.208274   0.000000
    98  O   -0.347939   0.000000
    99  H    0.211264  -0.000000
   100  H    0.211705   0.000000
   101  O   -0.346581   0.000001
   102  H    0.209488   0.000000
   103  H    0.209300   0.000000
   104  O   -0.384652  -0.000000
   105  H    0.192408   0.000000
   106  H    0.192216   0.000000
   107  O   -0.384775  -0.000000
   108  H    0.192171   0.000000
   109  H    0.192636   0.000000
   110  O   -0.350946   0.000002
   111  H    0.205903   0.000000
   112  H    0.205716   0.000000
   113  O   -0.346554  -0.000000
   114  H    0.211829   0.000000
   115  H    0.212023   0.000000
   116  O   -0.388267   0.000012
   117  H    0.194391   0.000001
   118  H    0.165996  -0.000001
 Sum of Mulliken charges =   1.00000   1.00000
 Mulliken charges and spin densities with hydrogens summed into heavy atoms:
               1          2
     1  N   -0.149570   0.838793
     2  C    0.081842   0.002986
     3  C    0.002141   0.047791
     6  C    0.017800   0.006087
    12  C    0.161042  -0.008671
    13  C    0.014205   0.046121
    16  C    0.046864   0.008559
    22  C    0.155534  -0.014335
    23  C    0.002653   0.055339
    26  C    0.060972   0.009897
    32  O    0.016079   0.003881
    35  O    0.069744   0.001760
    38  O    0.005567  -0.000020
    41  O    0.002633   0.000806
    44  O    0.042655  -0.000009
    47  O   -0.063352   0.000265
    50  O    0.007804  -0.000003
    53  O   -0.064781   0.000054
    56  O   -0.059245   0.000035
    59  O    0.040695   0.000052
    62  O   -0.014532   0.000071
    65  O    0.024553   0.000001
    68  O   -0.010731   0.000108
    71  O    0.047305   0.000391
    74  O    0.078033   0.000000
    77  O   -0.060068   0.000000
    80  O    0.016976   0.000017
    83  O    0.075696   0.000000
    86  O    0.061346   0.000001
    89  O    0.065574   0.000005
    92  O   -0.000018  -0.000000
    95  O    0.067254   0.000002
    98  O    0.075030   0.000000
   101  O    0.072207   0.000002
   104  O   -0.000028   0.000000
   107  O    0.000032   0.000000
   110  O    0.060673   0.000003
   113  O    0.077298   0.000000
   116  O   -0.027880   0.000013
 Electronic spatial extent (au):  <R**2>=          50301.8597
 Charge=              1.0000 electrons
 Dipole moment (field-independent basis, Debye):
    X=              4.3610    Y=              1.6427    Z=              3.1928  Tot=              5.6490
 Quadrupole moment (field-independent basis, Debye-Ang):
   XX=           -149.8783   YY=             -9.3327   ZZ=           -139.9736
   XY=             -4.7521   XZ=             -5.8101   YZ=             -0.5045
 Traceless Quadrupole moment (field-independent basis, Debye-Ang):
   XX=            -50.1501   YY=             90.3955   ZZ=            -40.2454
   XY=             -4.7521   XZ=             -5.8101   YZ=             -0.5045
 Octapole moment (field-independent basis, Debye-Ang**2):
  XXX=            428.6742  YYY=            203.9821  ZZZ=           -373.7701  XYY=             53.8900
  XXY=           -396.0326  XXZ=            184.5869  XZZ=            202.4236  YZZ=           -227.1975
  YYZ=            113.6147  XYZ=            164.0853
 Hexadecapole moment (field-independent basis, Debye-Ang**3):
 XXXX=         -21017.8907 YYYY=          -6436.1759 ZZZZ=          -9910.9576 XXXY=          -2817.1402
 XXXZ=           -108.3600 YYYX=           1819.1940 YYYZ=          -1013.0244 ZZZX=            490.7566
 ZZZY=           -194.4903 XXYY=          -2942.7913 XXZZ=          -4526.5895 YYZZ=          -2406.4238
 XXYZ=            642.7096 YYXZ=            312.9400 ZZXY=           -479.3548
 N-N= 5.630919297123D+03 E-N=-1.742094654000D+04  KE= 2.602336068429D+03
 Leave Link  601 at Tue Mar  3 14:01:06 2026, MaxMem=  1610612736 cpu:               2.6 elap:               0.7
 (Enter /leonardo/prod/opt/applications/g16/c02/binary/g16/l9999.exe)
 Unable to Open any file for archive entry.
 1\1\GINC-LRDN4532\FOpt\UM062X\def2SVP\C9H79N1O29(1+,2)\MORZA000\03-Mar
 -2026\0\\#p opt(addredundant) M062X/def2svp scrf=(cpcm,solvent=water) 
 empiricaldispersion=GD3\\Title Card Required\\1,2\N,-0.1573322499,-0.9
 220243307,0.3690509762\C,-0.1016897605,-0.0269795172,-0.7597147897\C,0
 .8562724776,-0.4987078083,-1.8639281228\H,0.251075336,0.9457909165,-0.
 3592873514\H,-1.1230361749,0.1051703842,-1.1447207549\C,1.0963514465,0
 .6403884214,-2.8476409203\H,1.8121674201,-0.8202840613,-1.4241854588\H
 ,0.414043111,-1.3710594838,-2.3721326576\H,1.7418714219,0.3229802903,-
 3.6781990302\H,0.1472948657,1.0047270979,-3.2695760757\H,1.5853039357,
 1.4773801755,-2.3274702806\C,1.041576618,-1.1919785861,1.1293113791\C,
 1.5082788274,-2.6483816798,1.0028924873\H,0.7984010818,-0.9573200167,2
 .1779471061\H,1.8210253805,-0.5001897726,0.7805923865\C,2.8241004063,-
 2.8387463316,1.7491946264\H,0.7377813995,-3.3294971253,1.3927947232\H,
 1.6690077067,-2.8922562946,-0.0577516661\H,3.096656245,-3.9029858662,1
 .7609450587\H,3.6397623327,-2.2930118097,1.2528043206\H,2.7537985639,-
 2.4896556583,2.7910399102\C,-1.4170134614,-1.5160955386,0.740053473\C,
 -1.7838296786,-2.7021891956,-0.1742964656\H,-2.1806676136,-0.730342493
 6,0.6182047039\H,-1.3741546886,-1.8316764973,1.79314502\C,-3.236068447
 ,-3.0931046632,0.0766918501\H,-1.637032634,-2.4237619263,-1.2300468393
 \H,-1.1112708228,-3.5480994734,0.0373746477\H,-3.5138668679,-3.9727018
 626,-0.519489068\H,-3.3946589755,-3.3336810749,1.1383973769\H,-3.90414
 23242,-2.264021445,-0.1983395953\O,0.3231231955,2.9107074233,0.6418099
 054\H,-0.5921161355,2.8877903326,0.3042319849\H,0.8664419663,3.4477332
 602,0.0298283592\O,-0.6874154475,1.0395883234,2.335066697\H,-0.0947830
 643,1.7583514893,2.046647004\H,-0.7512348436,1.1241518255,3.2946190207
 \O,-2.3257840139,2.1016735757,0.4245293932\H,-2.016622389,1.6751636903
 ,1.2482379515\H,-3.1732481194,2.5540660668,0.6319984315\O,2.7449701554
 ,1.476999817,0.0953794733\H,1.9717260458,1.7325023443,0.619506252\H,2.
 8613512679,2.2789692654,-0.4430478809\O,2.2480017417,4.0198827866,-1.0
 164360922\H,2.7797248942,4.837292472,-0.8467180247\H,1.9900421037,4.08
 91231429,-1.9445852248\O,-3.5296675235,0.3512621255,-1.384698074\H,-4.
 1184605089,0.9638920581,-1.8577186994\H,-3.0758663664,0.9392833853,-0.
 7512755412\O,6.0150365493,-1.9295075791,-0.3282559398\H,6.2873535487,-
 1.0235304009,-0.5043838995\H,6.7916375197,-2.4073092137,-0.02259304\O,
 3.6145574589,-2.9880543519,-1.5314799955\H,4.3945179641,-2.6116142227,
 -1.0980198184\H,3.9279163776,-3.7322877288,-2.052255012\O,2.8507839494
 ,-0.2985562198,5.6620330925\H,3.3093386419,0.4895014789,5.3536579629\H
 ,3.3889823406,-0.6856320201,6.3578762187\O,3.2584035818,0.0790379426,-
 5.5879251356\H,2.9082817379,0.0447430403,-6.4827944782\H,3.9848865783,
 -0.5498566353,-5.5422850583\O,0.1378742282,-5.7952033685,0.6356980846\
 H,0.0183775841,-6.4554517846,1.3242893466\H,0.4087795711,-6.2657543984
 ,-0.1575521291\O,3.677636396,6.3074518564,-0.7035256416\H,3.4012556191
 ,6.8942505449,0.0071017055\H,4.631135586,6.1987666351,-0.6309036408\O,
 -0.800022902,-3.107479974,-3.7220931497\H,-1.440978293,-2.8800350083,-
 4.4021659758\H,-0.2862757521,-3.8468933746,-4.0594945928\O,-1.96647558
 18,-2.901891573,3.9616014866\H,-2.7044125701,-2.5216120091,4.447312349
 8\H,-1.5218196869,-3.5073320325,4.5622609368\O,-4.8659948892,6.0007802
 047,0.3893212942\H,-5.1296173217,6.4398383885,-0.4249498913\H,-4.07350
 54349,6.4437984048,0.7103932863\O,-8.3645536605,-1.9787218618,-2.07388
 06943\H,-7.535491463,-1.5649986024,-2.3345241315\H,-8.1687861134,-2.89
 93145394,-1.8743480999\O,-4.8326606819,3.1900849155,0.5682148566\H,-4.
 918065458,4.1665461282,0.5781336379\H,-5.5301198122,2.8248910856,1.151
 3808762\O,8.1771506815,-3.4434003151,0.664738824\H,8.0696121609,-3.693
 9879274,1.5882493168\H,8.3600285357,-4.2490617594,0.1708399624\O,4.666
 7009268,-5.0692882308,-3.3190421719\H,5.3277388032,-4.7683201272,-3.94
 99054452\H,4.0389077499,-5.6129792102,-3.8041003613\O,4.537007984,1.85
 18565503,4.8607921473\H,4.2868014803,2.7659711669,4.6943884768\H,5.142
 689316,1.5914266717,4.1591762469\O,6.725026163,3.4463361556,-3.7944719
 832\H,6.010836484,3.6729822682,-4.3991545778\H,6.4012774886,2.72435814
 83,-3.2444645409\O,-0.1858689795,-7.7868637774,2.686852558\H,0.3441299
 964,-7.6795527402,3.4828952475\H,-1.050799114,-8.1096953477,2.95990038
 48\O,2.8340398661,7.9808471997,1.3952506746\H,2.758656483,8.9347282504
 ,1.2989753198\H,2.0784518674,7.6851279252,1.9131012605\O,-2.7914298486
 ,-2.5251353703,-5.690688174\H,-2.7942216996,-1.6431155219,-6.075556736
 \H,-3.6638872386,-2.6707343085,-5.3117522858\O,-1.5979530945,-0.127557
 4328,8.3120983753\H,-1.2163937676,0.6434033475,7.8788395357\H,-0.89961
 70538,-0.7874958213,8.3719228948\O,-0.9661252589,8.9938145711,-1.64177
 74426\H,-0.6702225707,9.6296485484,-2.2997672936\H,-0.625591424,8.1329
 688207,-1.9084456915\O,-7.4997416385,-4.6784140342,-1.517551878\H,-7.5
 594056379,-5.1126531893,-0.6609103413\H,-7.3106802203,-5.3604185056,-2
 .1698289509\O,-6.8386091219,1.9844956705,2.2165032871\H,-6.5080543862,
 1.5243459395,2.9945271873\H,-7.4131142108,1.3691664177,1.7493862592\O,
 -5.1405752663,2.6708100274,-2.1641879278\H,-6.082620769,2.7427713413,-
 2.3371193281\H,-5.0304302979,2.7904908723,-1.2024876399\\Version=ES64L
 -G16RevC.02\State=2-A\HF=-2623.5023784\S2=0.754889\S2-1=0.\S2A=0.75002
 1\RMSD=4.293e-09\RMSF=3.976e-03\Dipole=1.7143005,0.6609135,1.250542\Qu
 adrupole=-37.2564018,67.1575158,-29.901114,-4.1645218,-4.2884567,-0.74
 40485\PG=C01 [X(C9H79N1O29)]\\@
 The archive entry for this job was punched.


 IT'S WHAT A FELLER THINKS HE KNOWS THAT HURTS HIM...
                    ------
           KIN HUBBARD
 Job cpu time:       1 days  0 hours 22 minutes 53.4 seconds.
 Elapsed time:       0 days  2 hours 19 minutes 10.6 seconds.
 File lengths (MBytes):  RWF=   1856 Int=      0 D2E=      0 Chk=    108 Scr=      1
 Normal termination of Gaussian 16 at Tue Mar  3 14:01:07 2026.
