46
opt_17_5h20_M062X_def2svpi_SCRF.log	Energy: -496592.4505756
N         -0.92806        0.01307       -0.08343
C          0.16453       -0.23408        0.82294
C          0.28304        0.83814        1.91208
H          1.08220       -0.21859        0.20862
H          0.04704       -1.24107        1.24079
C          1.48530        0.55198        2.80166
H          0.40010        1.82237        1.43598
H         -0.64417        0.85535        2.50516
H          1.55927        1.30030        3.60118
H          1.40961       -0.44043        3.26827
H          2.41372        0.58747        2.21468
C         -0.97734        1.24640       -0.83477
C         -2.09296        2.17882       -0.33699
H         -1.15783        0.96612       -1.88337
H          0.01024        1.72223       -0.75967
C         -2.08642        3.47690       -1.13464
H         -3.06522        1.67388       -0.44225
H         -1.94432        2.38560        0.73332
H         -2.88439        4.14497       -0.78582
H         -1.12754        4.00247       -1.02276
H         -2.24633        3.28208       -2.20456
C         -1.97568       -0.96816       -0.21713
C         -2.85237       -1.04129        1.04479
H         -1.47582       -1.93876       -0.37189
H         -2.57497       -0.71912       -1.10270
C         -3.93638       -2.09805        0.87550
H         -2.21812       -1.28198        1.91126
H         -3.30080       -0.05463        1.23252
H         -4.55773       -2.15570        1.77840
H         -4.59139       -1.85941        0.02577
H         -3.49541       -3.08944        0.69951
O          2.77030       -1.13089       -1.24350
H          2.29541       -1.86352       -0.80680
H          3.42068       -0.80632       -0.59318
O          0.30752       -0.99733       -2.40850
H          1.26516       -0.83626       -2.31868
H          0.14172       -1.07108       -3.35681
O          0.72540       -2.90749       -0.54220
H          0.40990       -2.45520       -1.35113
H          0.71978       -3.84843       -0.75636
O          2.27141        1.70036       -0.55737
H          2.32207        0.94952       -1.16710
H          2.96970        1.47569        0.07762
O          4.36239        0.17666        0.64170
H          5.24375        0.47088        0.37267
H          4.50365       -0.28493        1.47963