121
pre_opt.log	Energy: -1694063.5594900
N          2.55724       -0.13833       -0.75561
C          1.77658       -1.20866       -1.14953
C          0.54015       -1.60319       -0.39082
H          2.99062       -2.37541       -0.91455
H          1.73043       -1.30868       -2.24304
C          0.12045       -3.02968       -0.73658
H          0.72401       -1.54157        0.69061
H         -0.29118       -0.90809       -0.62175
H         -0.82652       -3.29785       -0.24804
H         -0.01310       -3.15212       -1.82223
H          0.88911       -3.74370       -0.40524
C          2.57971        0.32819        0.62104
C          1.46331        1.31303        0.96837
H          3.55188        0.81581        0.78461
H          2.53985       -0.54499        1.29523
C          1.56040        1.76722        2.41992
H          1.52802        2.17844        0.28996
H          0.48666        0.84096        0.78411
H          0.76224        2.47805        2.67273
H          1.47859        0.90978        3.10495
H          2.52542        2.25886        2.61544
C          3.61743        0.30957       -1.64389
C          3.43528        1.74933       -2.11644
H          3.61887       -0.35162       -2.52176
H          4.59248        0.20627       -1.13507
C          4.48688        2.14592       -3.14773
H          2.41976        1.84909       -2.53605
H          3.47444        2.43178       -1.25113
H          4.31783        3.16573       -3.51848
H          5.49962        2.10959       -2.72055
H          4.46509        1.46249       -4.01079
O          3.85444       -2.96374       -0.90714
H          4.66656       -2.50146       -0.38304
H          3.62988       -3.92175       -0.59618
O          5.88350        0.48541        1.06347
H          5.38131        0.18730        1.84177
H          6.67064        0.91817        1.42042
O          5.90662       -1.99699        0.02665
H          5.99953       -1.04069        0.25113
H          6.43619       -2.20408       -0.77088
O          2.50271       -2.98407        1.67685
H          3.40065       -2.62712        1.76941
H          2.61587       -3.87200        1.31284
O          3.19220       -5.27297       -0.13255
H          3.88052       -5.75316        0.34959
H          2.91466       -5.88692       -0.86012
O        -10.30874       -0.39199        0.90094
H        -10.13369       -1.33332        0.97055
H        -11.26257       -0.31834        0.98072
O         -8.53105        3.34547       -2.94237
H         -8.35603        2.40409       -2.87272
H         -9.48490        3.41904       -2.86255
O         -5.76971        0.30471        8.01078
H         -5.59461       -0.63667        8.08046
H         -6.72352        0.37829        8.09049
O         -4.29915       -5.20866       -6.18298
H         -4.12405       -6.15031       -6.11336
H         -5.25315       -5.13558       -6.10349
O         -4.08577        9.80791        0.99081
H         -3.91076        8.86640        1.06015
H         -5.03962        9.88160        1.07056
O          1.32190       -6.03139        5.47816
H          1.49667       -6.97269        5.54783
H          0.36788       -5.95763        5.55824
O          0.11415        3.03537       -8.34578
H          0.28900        2.09412       -8.27658
H         -0.83984        3.10917       -8.26701
O          3.30184        6.07071        5.86483
H          3.47797        5.12972        5.93503
H          2.34838        6.14317        5.94362
O          6.26259       -3.14152       -2.36941
H          6.43766       -4.08268       -2.29970
H          5.30874       -3.06752       -2.28949
O          7.31515        2.74620       -0.98194
H          7.49029        1.80502       -0.91196
H          6.36139        2.82028       -0.90118
O        -15.12077       -2.58303       -0.38957
H        -15.44098       -3.49022       -0.40463
H        -15.89224       -2.01114       -0.32935
O        -11.86405       -0.55867       -3.98313
H        -11.76255       -1.42925       -3.58576
H        -12.56627       -0.11050       -3.50112
O         -8.73633       -3.05919       10.62147
H         -8.33874       -2.76048       11.44544
H         -9.55214       -3.51482       10.84944
O         -7.80704       -9.03531       -6.71390
H         -7.50345       -9.37876       -7.55999
H         -8.74952       -9.21936       -6.65526
O         -9.51834       10.77681        2.05335
H         -9.35196       11.68568        1.78424
H        -10.39554       10.75448        2.44795
O         -2.20093       -9.87143        6.10942
H         -2.10699      -10.80262        6.33209
H         -3.11912       -9.63246        6.27013
O         -5.41626        2.86942       -7.58289
H         -6.12729        3.03813       -8.20823
H         -5.77122        3.02907       -6.70237
O         -0.66971        2.79254        7.37191
H         -0.54032        2.85883        8.32193
H         -1.48788        2.30476        7.23205
O          2.73565       -7.04419       -2.11184
H          3.33446       -7.79728       -2.10138
H          1.97173       -7.29785       -2.63832
O         -1.13866       11.51237       -2.99406
H         -1.27420       10.58160       -2.78784
H         -1.59744       12.01810       -2.31580
O          4.87286       -1.64562        2.56941
H          5.78365       -1.83194        2.31976
H          4.67966       -2.16943        3.35237
O          2.14562       -0.32518       -4.43409
H          2.61281       -0.63649       -5.21438
H          2.32198        0.61771       -4.35561
O          6.39734        8.30897        2.30716
H          6.58684        7.45158        2.70220
H          5.73461        8.73281        2.86178
O         10.25632       -1.92771        1.08564
H         11.11916       -1.53059        1.23567
H         10.11609       -1.94124        0.13317
O         12.28991        1.85898       -1.79229
H         12.10175        2.50157       -1.10084
H         11.82778        2.15513       -2.58298
