46
opt_IRC_ultimo_step_M062X_def2svp.log	Energy: -496579.2541406
N         -0.73651        0.35423        0.34792
C          0.30113        0.41648        1.25266
C          1.12651        1.66909        1.40638
H          1.25731       -0.69542        0.33346
H          0.08668       -0.12636        2.18292
C          2.41047        1.40834        2.18634
H          1.38724        2.08235        0.42154
H          0.52580        2.44000        1.92824
H          2.96612        2.33959        2.36107
H          2.19700        0.95214        3.16460
H          3.06671        0.72342        1.62954
C         -0.64765        1.00802       -0.94733
C         -1.39291        2.33931       -1.01759
H         -1.04446        0.31269       -1.70485
H          0.41765        1.16347       -1.17854
C         -1.23489        2.99919       -2.38175
H         -2.45931        2.16581       -0.80065
H         -1.01105        3.00073       -0.22341
H         -1.77680        3.95314       -2.43057
H         -0.17516        3.20053       -2.59932
H         -1.62219        2.34896       -3.18042
C         -1.86939       -0.51280        0.62747
C         -2.83606        0.06661        1.65910
H         -1.49335       -1.49082        0.97934
H         -2.39255       -0.70198       -0.32084
C         -3.98975       -0.88576        1.94734
H         -2.28014        0.28135        2.58581
H         -3.21754        1.03137        1.28941
H         -4.67909       -0.46442        2.69127
H         -4.56601       -1.09495        1.03366
H         -3.61913       -1.84619        2.33586
O          1.64728       -1.37674       -0.34313
H          0.98096       -2.22737       -0.38556
H          2.59598       -1.55981       -0.08174
O         -1.60040       -2.10810       -2.28613
H         -1.24470       -2.03248       -3.18199
H         -2.50685       -2.42411       -2.40213
O         -0.02156       -3.14426       -0.45164
H         -0.65153       -2.85669       -1.16661
H          0.25551       -4.04672       -0.65984
O          3.01121        0.99397       -1.18634
H          2.51090        0.33745       -1.68688
H          3.58685        0.44414       -0.63429
O          4.16268       -1.30602        0.26331
H          4.82060       -1.76522       -0.27848
H          4.44152       -1.44580        1.17976
