 Set GAUSS_PDEF to "12".
 Entering Gaussian System, Link 0=g16
 Initial command:
 /leonardo/prod/opt/applications/g16/c02/binary/g16/l1.exe "/leonardo_scratch/large/userexternal/morza000/g16_35537187/Gau-639034.inp" -scrdir="/leonardo_scratch/large/userexternal/morza000/g16_35537187/"
 Default is to use a total of  12 processors:
                               12 via shared-memory
                                1 via Linda
 Entering Link 1 = /leonardo/prod/opt/applications/g16/c02/binary/g16/l1.exe PID=    639040.
  
 Copyright (c) 1988-2021, Gaussian, Inc.  All Rights Reserved.
  
 This is part of the Gaussian(R) 16 program.  It is based on
 the Gaussian(R) 09 system (copyright 2009, Gaussian, Inc.),
 the Gaussian(R) 03 system (copyright 2003, Gaussian, Inc.),
 the Gaussian(R) 98 system (copyright 1998, Gaussian, Inc.),
 the Gaussian(R) 94 system (copyright 1995, Gaussian, Inc.),
 the Gaussian 92(TM) system (copyright 1992, Gaussian, Inc.),
 the Gaussian 90(TM) system (copyright 1990, Gaussian, Inc.),
 the Gaussian 88(TM) system (copyright 1988, Gaussian, Inc.),
 the Gaussian 86(TM) system (copyright 1986, Carnegie Mellon
 University), and the Gaussian 82(TM) system (copyright 1983,
 Carnegie Mellon University). Gaussian is a federally registered
 trademark of Gaussian, Inc.
  
 This software contains proprietary and confidential information,
 including trade secrets, belonging to Gaussian, Inc.
  
 This software is provided under written license and may be
 used, copied, transmitted, or stored only in accord with that
 written license.
  
 The following legend is applicable only to US Government
 contracts under FAR:
  
                    RESTRICTED RIGHTS LEGEND
  
 Use, reproduction and disclosure by the US Government is
 subject to restrictions as set forth in subparagraphs (a)
 and (c) of the Commercial Computer Software - Restricted
 Rights clause in FAR 52.227-19.
  
 Gaussian, Inc.
 340 Quinnipiac St., Bldg. 40, Wallingford CT 06492
  
  
 ---------------------------------------------------------------
 Warning -- This program may not be used in any manner that
 competes with the business of Gaussian, Inc. or will provide
 assistance to any competitor of Gaussian, Inc.  The licensee
 of this program is prohibited from giving any competitor of
 Gaussian, Inc. access to this program.  By using this program,
 the user acknowledges that Gaussian, Inc. is engaged in the
 business of creating and licensing software in the field of
 computational chemistry and represents and warrants to the
 licensee that it is not a competitor of Gaussian, Inc. and that
 it will not use this program in any manner prohibited above.
 ---------------------------------------------------------------
  

 Cite this work as:
 Gaussian 16, Revision C.02,
 M. J. Frisch, G. W. Trucks, H. B. Schlegel, G. E. Scuseria, 
 M. A. Robb, J. R. Cheeseman, G. Scalmani, V. Barone, 
 G. A. Petersson, H. Nakatsuji, X. Li, M. Caricato, A. V. Marenich, 
 J. Bloino, B. G. Janesko, R. Gomperts, B. Mennucci, H. P. Hratchian, 
 J. V. Ortiz, A. F. Izmaylov, J. L. Sonnenberg, D. Williams-Young, 
 F. Ding, F. Lipparini, F. Egidi, J. Goings, B. Peng, A. Petrone, 
 T. Henderson, D. Ranasinghe, V. G. Zakrzewski, J. Gao, N. Rega, 
 G. Zheng, W. Liang, M. Hada, M. Ehara, K. Toyota, R. Fukuda, 
 J. Hasegawa, M. Ishida, T. Nakajima, Y. Honda, O. Kitao, H. Nakai, 
 T. Vreven, K. Throssell, J. A. Montgomery, Jr., J. E. Peralta, 
 F. Ogliaro, M. J. Bearpark, J. J. Heyd, E. N. Brothers, K. N. Kudin, 
 V. N. Staroverov, T. A. Keith, R. Kobayashi, J. Normand, 
 K. Raghavachari, A. P. Rendell, J. C. Burant, S. S. Iyengar, 
 J. Tomasi, M. Cossi, J. M. Millam, M. Klene, C. Adamo, R. Cammi, 
 J. W. Ochterski, R. L. Martin, K. Morokuma, O. Farkas, 
 J. B. Foresman, and D. J. Fox, Gaussian, Inc., Wallingford CT, 2019.
 
 ******************************************
 Gaussian 16:  ES64L-G16RevC.02  7-Dec-2021
                 4-Mar-2026 
 ******************************************
 %nproc=12
 Will use up to   12 processors via shared memory.
 %mem=12GB
 ----------------------------------------------------------------------
 #p opt(addredundant) M062X/def2svp scrf=(cpcm,solvent=water) empirical
 dispersion=GD3
 ----------------------------------------------------------------------
 1/18=120,19=15,26=3,38=1/1,3;
 2/9=110,12=2,17=6,18=5,40=1/2;
 3/5=43,7=101,11=2,25=1,30=1,70=2101,71=1,72=1,74=-55,124=31/1,2,3;
 4//1;
 5/5=2,38=5,53=1/2;
 6/7=2,8=2,9=2,10=2,28=1/1;
 7//1,2,3,16;
 1/18=20,19=15,26=3/3(2);
 2/9=110/2;
 99//99;
 2/9=110/2;
 3/5=43,7=101,11=2,25=1,30=1,70=2105,71=1,72=1,74=-55,124=31/1,2,3;
 4/5=5,16=3,69=1/1;
 5/5=2,38=5,53=1/2;
 7//1,2,3,16;
 1/18=20,19=15,26=3/3(-5);
 2/9=110/2;
 6/7=2,8=2,9=2,10=2,19=2,28=1/1;
 99/9=1/99;
 Leave Link    1 at Wed Mar  4 18:12:39 2026, MaxMem=  1610612736 cpu:               0.1 elap:               8.5
 (Enter /leonardo/prod/opt/applications/g16/c02/binary/g16/l101.exe)
 -------------------
 Title Card Required
 -------------------
 Symbolic Z-matrix:
 Charge =  1 Multiplicity = 2
 N                    -0.16232  -0.91398   0.36438 
 C                    -0.10925  -0.0165   -0.76037 
 C                     0.85526  -0.47325  -1.86559 
 H                     0.29916   1.95212   0.12585 
 H                    -1.13089   0.10853  -1.14798 
 C                     1.10905   0.68246  -2.82626 
 H                     1.80686  -0.80728  -1.42598 
 H                     0.4127   -1.33479  -2.39168 
 H                     1.75346   0.37512  -3.66148 
 H                     0.16473   1.06502  -3.2429 
 H                     1.60518   1.5024   -2.28636 
 C                     1.03766  -1.18982   1.1211 
 C                     1.48888  -2.65157   1.00682 
 H                     0.80272  -0.94096   2.16855 
 H                     1.82436  -0.51193   0.76163 
 C                     2.80195  -2.85077   1.75563 
 H                     0.71037  -3.32108   1.40098 
 H                     1.64765  -2.90407  -0.05206 
 H                     3.06497  -3.91734   1.773 
 H                     3.62317  -2.31496   1.25749 
 H                     2.73385  -2.49621   2.79576 
 C                    -1.42434  -1.49778   0.74513 
 C                    -1.80678  -2.67923  -0.16816 
 H                    -2.18201  -0.70512   0.63048 
 H                    -1.37739  -1.81452   1.79764 
 C                    -3.26191  -3.05633   0.0876 
 H                    -1.66055  -2.4008   -1.2241 
 H                    -1.14181  -3.53213   0.03967 
 H                    -3.54953  -3.93442  -0.50618 
 H                    -3.41917  -3.29339   1.15031 
 H                    -3.92321  -2.22158  -0.18683 
 O                     0.3579    2.76632   0.5199 
 H                    -0.57859   2.8449    0.25545 
 H                     0.89682   3.37463  -0.02663 
 O                    -0.68794   1.04805   2.34861 
 H                    -0.07612   1.73468   2.02483 
 H                    -0.72434   1.16295   3.30641 
 O                    -2.32545   2.13285   0.44696 
 H                    -2.0197    1.70597   1.27159 
 H                    -3.1709    2.59044   0.65163 
 O                     2.84071   1.4403    0.06239 
 H                     2.03998   1.65394   0.56202 
 H                     2.94689   2.25909  -0.45216 
 O                     2.30294   4.00599  -0.99929 
 H                     2.8224    4.82552  -0.80391 
 H                     2.07558   4.08435  -1.93477 
 O                    -3.53981   0.39684  -1.37366 
 H                    -4.11917   1.01907  -1.84569 
 H                    -3.0792    0.97589  -0.73704 
 O                     5.98853  -1.96204  -0.31262 
 H                     6.26842  -1.0569   -0.48103 
 H                     6.76038  -2.44809  -0.00792 
 O                     3.58413  -2.99303  -1.53176 
 H                     4.3655   -2.62587  -1.09294 
 H                     3.89352  -3.73572  -2.05712 
 O                     2.81636  -0.35136   5.67896 
 H                     3.28201   0.4354    5.37805 
 H                     3.34913  -0.74777   6.3737 
 O                     3.2657    0.10692  -5.56638 
 H                     2.91828   0.08205  -6.46267 
 H                     3.98695  -0.52802  -5.52305 
 O                     0.07852  -5.78929   0.60257 
 H                    -0.04845  -6.45373   1.28572 
 H                     0.34846  -6.25596  -0.19334 
 O                     3.71586   6.29517  -0.63425 
 H                     3.44159   6.87887   0.07986 
 H                     4.66827   6.17862  -0.55906 
 O                    -0.82358  -3.06193  -3.73828 
 H                    -1.46056  -2.82454  -4.41871 
 H                    -0.3145   -3.80281  -4.07938 
 O                    -2.01491  -2.90462   3.94285 
 H                    -2.7516   -2.52231   4.42886 
 H                    -1.57709  -3.51802   4.54043 
 O                    -4.8335    6.04652   0.42743 
 H                    -5.09093   6.49367  -0.38443 
 H                    -4.03873   6.48099   0.75447 
 O                    -8.38488  -1.88715  -2.10726 
 H                    -7.55173  -1.47775  -2.36192 
 H                    -8.19691  -2.81064  -1.91387 
 O                    -4.82228   3.23454   0.58541 
 H                    -4.90034   4.21141   0.60235 
 H                    -5.52466   2.87026   1.16344 
 O                     8.13549  -3.49995   0.67634 
 H                     8.02284  -3.75658   1.59758 
 H                     8.31386  -4.3033    0.17705 
 O                     4.62637  -5.06891  -3.33135 
 H                     5.29183  -4.76838  -3.95773 
 H                     3.99607  -5.60414  -3.82256 
 O                     4.52181   1.79187   4.89954 
 H                     4.27923   2.70909   4.73911 
 H                     5.1279    1.53199   4.19806 
 O                     6.75191   3.4339   -3.73595 
 H                     6.04143   3.67057  -4.34144 
 H                     6.42038   2.7102   -3.19273 
 O                    -0.26767  -7.79361   2.63759 
 H                     0.26043  -7.69634   3.4362 
 H                    -1.13598  -8.11175   2.90531 
 O                     2.87805   7.95948   1.47418 
 H                     2.81035   8.91461   1.38479 
 H                     2.11843   7.66577   1.98725 
 O                    -2.8038   -2.44965  -5.70908 
 H                    -2.79839  -1.56477  -6.08742 
 H                    -3.67861  -2.59123  -5.33423 
 O                    -1.63998  -0.1658    8.31512 
 H                    -1.25114   0.60554   7.88885 
 H                    -0.94701  -0.83148   8.37239 
 O                    -0.90373   9.02439  -1.56804 
 H                    -0.60066   9.66279  -2.22023 
 H                    -0.56898   8.16298  -1.84 
 O                    -7.54282  -4.59745  -1.56815 
 H                    -7.60878  -5.0376   -0.71501 
 H                    -7.35679  -5.27604  -2.22488 
 O                    -6.8433    2.0321    2.21777 
 H                    -6.51896   1.56368   2.99353 
 H                    -7.42086   1.42469   1.74419 
 O                    -5.12492   2.73795  -2.15185 
 H                    -6.0658    2.8184   -2.3274 
 H                    -5.01715   2.84956  -1.1889 
 
 Add virtual bond connecting atoms O65        and H45        Dist= 3.27D+00.
 Add virtual bond connecting atoms O80        and H40        Dist= 3.35D+00.
 Add virtual bond connecting atoms H49        and O38        Dist= 3.44D+00.
 Add virtual bond connecting atoms H42        and H4         Dist= 3.44D+00.
 Add virtual bond connecting atoms O44        and H34        Dist= 3.44D+00.
 Add virtual bond connecting atoms O44        and H43        Dist= 3.67D+00.
 Add virtual bond connecting atoms H118       and O80        Dist= 3.45D+00.
 Add virtual bond connecting atoms H39        and O35        Dist= 3.47D+00.
 Add virtual bond connecting atoms H81        and O74        Dist= 3.49D+00.
 Add virtual bond connecting atoms O98        and H66        Dist= 3.50D+00.
 Add virtual bond connecting atoms O83        and H52        Dist= 3.52D+00.
 Add virtual bond connecting atoms H36        and H4         Dist= 3.68D+00.
 Add virtual bond connecting atoms H36        and O32        Dist= 3.54D+00.
 Add virtual bond connecting atoms O38        and H33        Dist= 3.58D+00.
 Add virtual bond connecting atoms O113       and H82        Dist= 3.56D+00.
 Add virtual bond connecting atoms O89        and H57        Dist= 3.59D+00.
 Add virtual bond connecting atoms O101       and H69        Dist= 3.59D+00.
 Add virtual bond connecting atoms O95        and H63        Dist= 3.62D+00.
 Add virtual bond connecting atoms H54        and O50        Dist= 3.63D+00.
 Add virtual bond connecting atoms O110       and H79        Dist= 3.65D+00.
 Add virtual bond connecting atoms O86        and H55        Dist= 3.75D+00.
 Add virtual bond connecting atoms H4         and C2         Dist= 4.15D+00.
 Add virtual bond connecting atoms O41        and H15        Dist= 4.36D+00.
 Add virtual bond connecting atoms H42        and H15        Dist= 4.13D+00.
 Add virtual bond connecting atoms H49        and H5         Dist= 4.10D+00.
 Add virtual bond connecting atoms O53        and H18        Dist= 4.61D+00.
 Add virtual bond connecting atoms H54        and H20        Dist= 4.69D+00.
 Add virtual bond connecting atoms O59        and H9         Dist= 4.62D+00.
 Add virtual bond connecting atoms O71        and H25        Dist= 4.70D+00.
 Add virtual bond connecting atoms O68        and H8         Dist= 4.75D+00.
 Add virtual bond connecting atoms O62        and H17        Dist= 5.05D+00.
 Add virtual bond connecting atoms O62        and H28        Dist= 4.96D+00.
 Add virtual bond connecting atoms O56        and H21        Dist= 6.79D+00.
 Add virtual bond connecting atoms H78        and H31        Dist= 8.12D+00.
 Add virtual bond connecting atoms H78        and H48        Dist= 8.08D+00.
 Add virtual bond connecting atoms O110       and H29        Dist= 7.91D+00.
 Add virtual bond connecting atoms H111       and H29        Dist= 7.96D+00.
 Add virtual bond connecting atoms H94        and H43        Dist= 8.40D+00.
 Add virtual bond connecting atoms O107       and H76        Dist= 8.80D+00.
 Add virtual bond connecting atoms O107       and H99        Dist= 8.97D+00.
 Add virtual bond connecting atoms H109       and H66        Dist= 8.75D+00.
 Add virtual bond connecting atoms H109       and H76        Dist= 8.78D+00.
 Add virtual bond connecting atoms H109       and O98        Dist= 9.04D+00.
 Add virtual bond connecting atoms O104       and H72        Dist= 8.84D+00.
 Add virtual bond connecting atoms H105       and H37        Dist= 8.78D+00.
 Add virtual bond connecting atoms H105       and O56        Dist= 8.93D+00.
 Add virtual bond connecting atoms H106       and O56        Dist= 8.79D+00.
 Add virtual bond connecting atoms H106       and H58        Dist= 8.96D+00.
 The following ModRedundant input section has been read:
 B       4      32 F                                                           
 X      50 F                                                                   
 X      51 F                                                                   
 X      52 F                                                                   
 X      53 F                                                                   
 X      54 F                                                                   
 X      55 F                                                                   
 X      56 F                                                                   
 X      57 F                                                                   
 X      58 F                                                                   
 X      59 F                                                                   
 X      60 F                                                                   
 X      61 F                                                                   
 X      62 F                                                                   
 X      63 F                                                                   
 X      64 F                                                                   
 X      65 F                                                                   
 X      66 F                                                                   
 X      67 F                                                                   
 X      68 F                                                                   
 X      69 F                                                                   
 X      70 F                                                                   
 X      71 F                                                                   
 X      72 F                                                                   
 X      73 F                                                                   
 X      74 F                                                                   
 X      75 F                                                                   
 X      76 F                                                                   
 X      77 F                                                                   
 X      78 F                                                                   
 X      79 F                                                                   
 X      80 F                                                                   
 X      81 F                                                                   
 X      82 F                                                                   
 X      83 F                                                                   
 X      84 F                                                                   
 X      85 F                                                                   
 X      86 F                                                                   
 X      87 F                                                                   
 X      88 F                                                                   
 X      89 F                                                                   
 X      90 F                                                                   
 X      91 F                                                                   
 X      92 F                                                                   
 X      93 F                                                                   
 X      94 F                                                                   
 X      95 F                                                                   
 X      96 F                                                                   
 X      97 F                                                                   
 X      98 F                                                                   
 X      99 F                                                                   
 X     100 F                                                                   
 X     101 F                                                                   
 X     102 F                                                                   
 X     103 F                                                                   
 X     104 F                                                                   
 X     105 F                                                                   
 X     106 F                                                                   
 X     107 F                                                                   
 X     108 F                                                                   
 X     109 F                                                                   
 X     110 F                                                                   
 X     111 F                                                                   
 X     112 F                                                                   
 X     113 F                                                                   
 X     114 F                                                                   
 X     115 F                                                                   
 X     116 F                                                                   
 X     117 F                                                                   
 X     118 F                                                                   
 
 ITRead=  0  0  0  0  0  0  0  0  0  0  0  0  0  0  0  0  0  0  0  0
 ITRead=  0  0  0  0  0  0  0  0  0  0  0  0  0  0  0  0  0  0  0  0
 ITRead=  0  0  0  0  0  0  0  0  0  0  0  0  0  0  0  0  0  0  0  0
 ITRead=  0  0  0  0  0  0  0  0  0  0  0  0  0  0  0  0  0  0  0  0
 ITRead=  0  0  0  0  0  0  0  0  0  0  0  0  0  0  0  0  0  0  0  0
 ITRead=  0  0  0  0  0  0  0  0  0  0  0  0  0  0  0  0  0  0
 MicOpt= -1 -1 -1 -1 -1 -1 -1 -1 -1 -1 -1 -1 -1 -1 -1 -1 -1 -1 -1 -1
 MicOpt= -1 -1 -1 -1 -1 -1 -1 -1 -1 -1 -1 -1 -1 -1 -1 -1 -1 -1 -1 -1
 MicOpt= -1 -1 -1 -1 -1 -1 -1 -1 -1 -1 -1 -1 -1 -1 -1 -1 -1 -1 -1 -1
 MicOpt= -1 -1 -1 -1 -1 -1 -1 -1 -1 -1 -1 -1 -1 -1 -1 -1 -1 -1 -1 -1
 MicOpt= -1 -1 -1 -1 -1 -1 -1 -1 -1 -1 -1 -1 -1 -1 -1 -1 -1 -1 -1 -1
 MicOpt= -1 -1 -1 -1 -1 -1 -1 -1 -1 -1 -1 -1 -1 -1 -1 -1 -1 -1
 NAtoms=    118 NQM=      118 NQMF=       0 NMMI=      0 NMMIF=      0
                NMic=       0 NMicF=      0.
                    Isotopes and Nuclear Properties:
 (Nuclear quadrupole moments (NQMom) in fm**2, nuclear magnetic moments (NMagM)
  in nuclear magnetons)

  Atom         1           2           3           4           5           6           7           8           9          10
 IAtWgt=          14          12          12           1           1          12           1           1           1           1
 AtmWgt=  14.0030740  12.0000000  12.0000000   1.0078250   1.0078250  12.0000000   1.0078250   1.0078250   1.0078250   1.0078250
 NucSpn=           2           0           0           1           1           0           1           1           1           1
 AtZEff=  -0.0000000  -0.0000000  -0.0000000  -0.0000000  -0.0000000  -0.0000000  -0.0000000  -0.0000000  -0.0000000  -0.0000000
 NQMom=    2.0440000   0.0000000   0.0000000   0.0000000   0.0000000   0.0000000   0.0000000   0.0000000   0.0000000   0.0000000
 NMagM=    0.4037610   0.0000000   0.0000000   2.7928460   2.7928460   0.0000000   2.7928460   2.7928460   2.7928460   2.7928460
 AtZNuc=   7.0000000   6.0000000   6.0000000   1.0000000   1.0000000   6.0000000   1.0000000   1.0000000   1.0000000   1.0000000

  Atom        11          12          13          14          15          16          17          18          19          20
 IAtWgt=           1          12          12           1           1          12           1           1           1           1
 AtmWgt=   1.0078250  12.0000000  12.0000000   1.0078250   1.0078250  12.0000000   1.0078250   1.0078250   1.0078250   1.0078250
 NucSpn=           1           0           0           1           1           0           1           1           1           1
 AtZEff=  -0.0000000  -0.0000000  -0.0000000  -0.0000000  -0.0000000  -0.0000000  -0.0000000  -0.0000000  -0.0000000  -0.0000000
 NQMom=    0.0000000   0.0000000   0.0000000   0.0000000   0.0000000   0.0000000   0.0000000   0.0000000   0.0000000   0.0000000
 NMagM=    2.7928460   0.0000000   0.0000000   2.7928460   2.7928460   0.0000000   2.7928460   2.7928460   2.7928460   2.7928460
 AtZNuc=   1.0000000   6.0000000   6.0000000   1.0000000   1.0000000   6.0000000   1.0000000   1.0000000   1.0000000   1.0000000

  Atom        21          22          23          24          25          26          27          28          29          30
 IAtWgt=           1          12          12           1           1          12           1           1           1           1
 AtmWgt=   1.0078250  12.0000000  12.0000000   1.0078250   1.0078250  12.0000000   1.0078250   1.0078250   1.0078250   1.0078250
 NucSpn=           1           0           0           1           1           0           1           1           1           1
 AtZEff=  -0.0000000  -0.0000000  -0.0000000  -0.0000000  -0.0000000  -0.0000000  -0.0000000  -0.0000000  -0.0000000  -0.0000000
 NQMom=    0.0000000   0.0000000   0.0000000   0.0000000   0.0000000   0.0000000   0.0000000   0.0000000   0.0000000   0.0000000
 NMagM=    2.7928460   0.0000000   0.0000000   2.7928460   2.7928460   0.0000000   2.7928460   2.7928460   2.7928460   2.7928460
 AtZNuc=   1.0000000   6.0000000   6.0000000   1.0000000   1.0000000   6.0000000   1.0000000   1.0000000   1.0000000   1.0000000

  Atom        31          32          33          34          35          36          37          38          39          40
 IAtWgt=           1          16           1           1          16           1           1          16           1           1
 AtmWgt=   1.0078250  15.9949146   1.0078250   1.0078250  15.9949146   1.0078250   1.0078250  15.9949146   1.0078250   1.0078250
 NucSpn=           1           0           1           1           0           1           1           0           1           1
 AtZEff=  -0.0000000  -0.0000000  -0.0000000  -0.0000000  -0.0000000  -0.0000000  -0.0000000  -0.0000000  -0.0000000  -0.0000000
 NQMom=    0.0000000   0.0000000   0.0000000   0.0000000   0.0000000   0.0000000   0.0000000   0.0000000   0.0000000   0.0000000
 NMagM=    2.7928460   0.0000000   2.7928460   2.7928460   0.0000000   2.7928460   2.7928460   0.0000000   2.7928460   2.7928460
 AtZNuc=   1.0000000   8.0000000   1.0000000   1.0000000   8.0000000   1.0000000   1.0000000   8.0000000   1.0000000   1.0000000

  Atom        41          42          43          44          45          46          47          48          49          50
 IAtWgt=          16           1           1          16           1           1          16           1           1          16
 AtmWgt=  15.9949146   1.0078250   1.0078250  15.9949146   1.0078250   1.0078250  15.9949146   1.0078250   1.0078250  15.9949146
 NucSpn=           0           1           1           0           1           1           0           1           1           0
 AtZEff=  -0.0000000  -0.0000000  -0.0000000  -0.0000000  -0.0000000  -0.0000000  -0.0000000  -0.0000000  -0.0000000  -0.0000000
 NQMom=    0.0000000   0.0000000   0.0000000   0.0000000   0.0000000   0.0000000   0.0000000   0.0000000   0.0000000   0.0000000
 NMagM=    0.0000000   2.7928460   2.7928460   0.0000000   2.7928460   2.7928460   0.0000000   2.7928460   2.7928460   0.0000000
 AtZNuc=   8.0000000   1.0000000   1.0000000   8.0000000   1.0000000   1.0000000   8.0000000   1.0000000   1.0000000   8.0000000

  Atom        51          52          53          54          55          56          57          58          59          60
 IAtWgt=           1           1          16           1           1          16           1           1          16           1
 AtmWgt=   1.0078250   1.0078250  15.9949146   1.0078250   1.0078250  15.9949146   1.0078250   1.0078250  15.9949146   1.0078250
 NucSpn=           1           1           0           1           1           0           1           1           0           1
 AtZEff=  -0.0000000  -0.0000000  -0.0000000  -0.0000000  -0.0000000  -0.0000000  -0.0000000  -0.0000000  -0.0000000  -0.0000000
 NQMom=    0.0000000   0.0000000   0.0000000   0.0000000   0.0000000   0.0000000   0.0000000   0.0000000   0.0000000   0.0000000
 NMagM=    2.7928460   2.7928460   0.0000000   2.7928460   2.7928460   0.0000000   2.7928460   2.7928460   0.0000000   2.7928460
 AtZNuc=   1.0000000   1.0000000   8.0000000   1.0000000   1.0000000   8.0000000   1.0000000   1.0000000   8.0000000   1.0000000

  Atom        61          62          63          64          65          66          67          68          69          70
 IAtWgt=           1          16           1           1          16           1           1          16           1           1
 AtmWgt=   1.0078250  15.9949146   1.0078250   1.0078250  15.9949146   1.0078250   1.0078250  15.9949146   1.0078250   1.0078250
 NucSpn=           1           0           1           1           0           1           1           0           1           1
 AtZEff=  -0.0000000  -0.0000000  -0.0000000  -0.0000000  -0.0000000  -0.0000000  -0.0000000  -0.0000000  -0.0000000  -0.0000000
 NQMom=    0.0000000   0.0000000   0.0000000   0.0000000   0.0000000   0.0000000   0.0000000   0.0000000   0.0000000   0.0000000
 NMagM=    2.7928460   0.0000000   2.7928460   2.7928460   0.0000000   2.7928460   2.7928460   0.0000000   2.7928460   2.7928460
 AtZNuc=   1.0000000   8.0000000   1.0000000   1.0000000   8.0000000   1.0000000   1.0000000   8.0000000   1.0000000   1.0000000

  Atom        71          72          73          74          75          76          77          78          79          80
 IAtWgt=          16           1           1          16           1           1          16           1           1          16
 AtmWgt=  15.9949146   1.0078250   1.0078250  15.9949146   1.0078250   1.0078250  15.9949146   1.0078250   1.0078250  15.9949146
 NucSpn=           0           1           1           0           1           1           0           1           1           0
 AtZEff=  -0.0000000  -0.0000000  -0.0000000  -0.0000000  -0.0000000  -0.0000000  -0.0000000  -0.0000000  -0.0000000  -0.0000000
 NQMom=    0.0000000   0.0000000   0.0000000   0.0000000   0.0000000   0.0000000   0.0000000   0.0000000   0.0000000   0.0000000
 NMagM=    0.0000000   2.7928460   2.7928460   0.0000000   2.7928460   2.7928460   0.0000000   2.7928460   2.7928460   0.0000000
 AtZNuc=   8.0000000   1.0000000   1.0000000   8.0000000   1.0000000   1.0000000   8.0000000   1.0000000   1.0000000   8.0000000

  Atom        81          82          83          84          85          86          87          88          89          90
 IAtWgt=           1           1          16           1           1          16           1           1          16           1
 AtmWgt=   1.0078250   1.0078250  15.9949146   1.0078250   1.0078250  15.9949146   1.0078250   1.0078250  15.9949146   1.0078250
 NucSpn=           1           1           0           1           1           0           1           1           0           1
 AtZEff=  -0.0000000  -0.0000000  -0.0000000  -0.0000000  -0.0000000  -0.0000000  -0.0000000  -0.0000000  -0.0000000  -0.0000000
 NQMom=    0.0000000   0.0000000   0.0000000   0.0000000   0.0000000   0.0000000   0.0000000   0.0000000   0.0000000   0.0000000
 NMagM=    2.7928460   2.7928460   0.0000000   2.7928460   2.7928460   0.0000000   2.7928460   2.7928460   0.0000000   2.7928460
 AtZNuc=   1.0000000   1.0000000   8.0000000   1.0000000   1.0000000   8.0000000   1.0000000   1.0000000   8.0000000   1.0000000

  Atom        91          92          93          94          95          96          97          98          99         100
 IAtWgt=           1          16           1           1          16           1           1          16           1           1
 AtmWgt=   1.0078250  15.9949146   1.0078250   1.0078250  15.9949146   1.0078250   1.0078250  15.9949146   1.0078250   1.0078250
 NucSpn=           1           0           1           1           0           1           1           0           1           1
 AtZEff=  -0.0000000  -0.0000000  -0.0000000  -0.0000000  -0.0000000  -0.0000000  -0.0000000  -0.0000000  -0.0000000  -0.0000000
 NQMom=    0.0000000   0.0000000   0.0000000   0.0000000   0.0000000   0.0000000   0.0000000   0.0000000   0.0000000   0.0000000
 NMagM=    2.7928460   0.0000000   2.7928460   2.7928460   0.0000000   2.7928460   2.7928460   0.0000000   2.7928460   2.7928460
 AtZNuc=   1.0000000   8.0000000   1.0000000   1.0000000   8.0000000   1.0000000   1.0000000   8.0000000   1.0000000   1.0000000

  Atom       101         102         103         104         105         106         107         108         109         110
 IAtWgt=          16           1           1          16           1           1          16           1           1          16
 AtmWgt=  15.9949146   1.0078250   1.0078250  15.9949146   1.0078250   1.0078250  15.9949146   1.0078250   1.0078250  15.9949146
 NucSpn=           0           1           1           0           1           1           0           1           1           0
 AtZEff=  -0.0000000  -0.0000000  -0.0000000  -0.0000000  -0.0000000  -0.0000000  -0.0000000  -0.0000000  -0.0000000  -0.0000000
 NQMom=    0.0000000   0.0000000   0.0000000   0.0000000   0.0000000   0.0000000   0.0000000   0.0000000   0.0000000   0.0000000
 NMagM=    0.0000000   2.7928460   2.7928460   0.0000000   2.7928460   2.7928460   0.0000000   2.7928460   2.7928460   0.0000000
 AtZNuc=   8.0000000   1.0000000   1.0000000   8.0000000   1.0000000   1.0000000   8.0000000   1.0000000   1.0000000   8.0000000

  Atom       111         112         113         114         115         116         117         118
 IAtWgt=           1           1          16           1           1          16           1           1
 AtmWgt=   1.0078250   1.0078250  15.9949146   1.0078250   1.0078250  15.9949146   1.0078250   1.0078250
 NucSpn=           1           1           0           1           1           0           1           1
 AtZEff=  -0.0000000  -0.0000000  -0.0000000  -0.0000000  -0.0000000  -0.0000000  -0.0000000  -0.0000000
 NQMom=    0.0000000   0.0000000   0.0000000   0.0000000   0.0000000   0.0000000   0.0000000   0.0000000
 NMagM=    2.7928460   2.7928460   0.0000000   2.7928460   2.7928460   0.0000000   2.7928460   2.7928460
 AtZNuc=   1.0000000   1.0000000   8.0000000   1.0000000   1.0000000   8.0000000   1.0000000   1.0000000
 Leave Link  101 at Wed Mar  4 18:12:42 2026, MaxMem=  1610612736 cpu:               0.7 elap:               2.5
 (Enter /leonardo/prod/opt/applications/g16/c02/binary/g16/l103.exe)

 GradGradGradGradGradGradGradGradGradGradGradGradGradGradGradGradGradGrad
 Berny optimization.
 Initialization pass.
                           ----------------------------
                           !    Initial Parameters    !
                           ! (Angstroms and Degrees)  !
 --------------------------                            --------------------------
 ! Name  Definition              Value          Derivative Info.                !
 --------------------------------------------------------------------------------
 ! X50   R(50,-1)                5.9885         Frozen                          !
 ! Y50   R(50,-2)               -1.962          Frozen                          !
 ! Z50   R(50,-3)               -0.3126         Frozen                          !
 ! X51   R(51,-1)                6.2684         Frozen                          !
 ! Y51   R(51,-2)               -1.0569         Frozen                          !
 ! Z51   R(51,-3)               -0.481          Frozen                          !
 ! X52   R(52,-1)                6.7604         Frozen                          !
 ! Y52   R(52,-2)               -2.4481         Frozen                          !
 ! Z52   R(52,-3)               -0.0079         Frozen                          !
 ! X53   R(53,-1)                3.5841         Frozen                          !
 ! Y53   R(53,-2)               -2.993          Frozen                          !
 ! Z53   R(53,-3)               -1.5318         Frozen                          !
 ! X54   R(54,-1)                4.3655         Frozen                          !
 ! Y54   R(54,-2)               -2.6259         Frozen                          !
 ! Z54   R(54,-3)               -1.0929         Frozen                          !
 ! X55   R(55,-1)                3.8935         Frozen                          !
 ! Y55   R(55,-2)               -3.7357         Frozen                          !
 ! Z55   R(55,-3)               -2.0571         Frozen                          !
 ! X56   R(56,-1)                2.8164         Frozen                          !
 ! Y56   R(56,-2)               -0.3514         Frozen                          !
 ! Z56   R(56,-3)                5.679          Frozen                          !
 ! X57   R(57,-1)                3.282          Frozen                          !
 ! Y57   R(57,-2)                0.4354         Frozen                          !
 ! Z57   R(57,-3)                5.378          Frozen                          !
 ! X58   R(58,-1)                3.3491         Frozen                          !
 ! Y58   R(58,-2)               -0.7478         Frozen                          !
 ! Z58   R(58,-3)                6.3737         Frozen                          !
 ! X59   R(59,-1)                3.2657         Frozen                          !
 ! Y59   R(59,-2)                0.1069         Frozen                          !
 ! Z59   R(59,-3)               -5.5664         Frozen                          !
 ! X60   R(60,-1)                2.9183         Frozen                          !
 ! Y60   R(60,-2)                0.0821         Frozen                          !
 ! Z60   R(60,-3)               -6.4627         Frozen                          !
 ! X61   R(61,-1)                3.987          Frozen                          !
 ! Y61   R(61,-2)               -0.528          Frozen                          !
 ! Z61   R(61,-3)               -5.5231         Frozen                          !
 ! X62   R(62,-1)                0.0785         Frozen                          !
 ! Y62   R(62,-2)               -5.7893         Frozen                          !
 ! Z62   R(62,-3)                0.6026         Frozen                          !
 ! X63   R(63,-1)               -0.0485         Frozen                          !
 ! Y63   R(63,-2)               -6.4537         Frozen                          !
 ! Z63   R(63,-3)                1.2857         Frozen                          !
 ! X64   R(64,-1)                0.3485         Frozen                          !
 ! Y64   R(64,-2)               -6.256          Frozen                          !
 ! Z64   R(64,-3)               -0.1933         Frozen                          !
 ! X65   R(65,-1)                3.7159         Frozen                          !
 ! Y65   R(65,-2)                6.2952         Frozen                          !
 ! Z65   R(65,-3)               -0.6343         Frozen                          !
 ! X66   R(66,-1)                3.4416         Frozen                          !
 ! Y66   R(66,-2)                6.8789         Frozen                          !
 ! Z66   R(66,-3)                0.0799         Frozen                          !
 ! X67   R(67,-1)                4.6683         Frozen                          !
 ! Y67   R(67,-2)                6.1786         Frozen                          !
 ! Z67   R(67,-3)               -0.5591         Frozen                          !
 ! X68   R(68,-1)               -0.8236         Frozen                          !
 ! Y68   R(68,-2)               -3.0619         Frozen                          !
 ! Z68   R(68,-3)               -3.7383         Frozen                          !
 ! X69   R(69,-1)               -1.4606         Frozen                          !
 ! Y69   R(69,-2)               -2.8245         Frozen                          !
 ! Z69   R(69,-3)               -4.4187         Frozen                          !
 ! X70   R(70,-1)               -0.3145         Frozen                          !
 ! Y70   R(70,-2)               -3.8028         Frozen                          !
 ! Z70   R(70,-3)               -4.0794         Frozen                          !
 ! X71   R(71,-1)               -2.0149         Frozen                          !
 ! Y71   R(71,-2)               -2.9046         Frozen                          !
 ! Z71   R(71,-3)                3.9429         Frozen                          !
 ! X72   R(72,-1)               -2.7516         Frozen                          !
 ! Y72   R(72,-2)               -2.5223         Frozen                          !
 ! Z72   R(72,-3)                4.4289         Frozen                          !
 ! X73   R(73,-1)               -1.5771         Frozen                          !
 ! Y73   R(73,-2)               -3.518          Frozen                          !
 ! Z73   R(73,-3)                4.5404         Frozen                          !
 ! X74   R(74,-1)               -4.8335         Frozen                          !
 ! Y74   R(74,-2)                6.0465         Frozen                          !
 ! Z74   R(74,-3)                0.4274         Frozen                          !
 ! X75   R(75,-1)               -5.0909         Frozen                          !
 ! Y75   R(75,-2)                6.4937         Frozen                          !
 ! Z75   R(75,-3)               -0.3844         Frozen                          !
 ! X76   R(76,-1)               -4.0387         Frozen                          !
 ! Y76   R(76,-2)                6.481          Frozen                          !
 ! Z76   R(76,-3)                0.7545         Frozen                          !
 ! X77   R(77,-1)               -8.3849         Frozen                          !
 ! Y77   R(77,-2)               -1.8872         Frozen                          !
 ! Z77   R(77,-3)               -2.1073         Frozen                          !
 ! X78   R(78,-1)               -7.5517         Frozen                          !
 ! Y78   R(78,-2)               -1.4778         Frozen                          !
 ! Z78   R(78,-3)               -2.3619         Frozen                          !
 ! X79   R(79,-1)               -8.1969         Frozen                          !
 ! Y79   R(79,-2)               -2.8106         Frozen                          !
 ! Z79   R(79,-3)               -1.9139         Frozen                          !
 ! X80   R(80,-1)               -4.8223         Frozen                          !
 ! Y80   R(80,-2)                3.2345         Frozen                          !
 ! Z80   R(80,-3)                0.5854         Frozen                          !
 ! X81   R(81,-1)               -4.9003         Frozen                          !
 ! Y81   R(81,-2)                4.2114         Frozen                          !
 ! Z81   R(81,-3)                0.6024         Frozen                          !
 ! X82   R(82,-1)               -5.5247         Frozen                          !
 ! Y82   R(82,-2)                2.8703         Frozen                          !
 ! Z82   R(82,-3)                1.1634         Frozen                          !
 ! X83   R(83,-1)                8.1355         Frozen                          !
 ! Y83   R(83,-2)               -3.5            Frozen                          !
 ! Z83   R(83,-3)                0.6763         Frozen                          !
 ! X84   R(84,-1)                8.0228         Frozen                          !
 ! Y84   R(84,-2)               -3.7566         Frozen                          !
 ! Z84   R(84,-3)                1.5976         Frozen                          !
 ! X85   R(85,-1)                8.3139         Frozen                          !
 ! Y85   R(85,-2)               -4.3033         Frozen                          !
 ! Z85   R(85,-3)                0.1771         Frozen                          !
 ! X86   R(86,-1)                4.6264         Frozen                          !
 ! Y86   R(86,-2)               -5.0689         Frozen                          !
 ! Z86   R(86,-3)               -3.3314         Frozen                          !
 ! X87   R(87,-1)                5.2918         Frozen                          !
 ! Y87   R(87,-2)               -4.7684         Frozen                          !
 ! Z87   R(87,-3)               -3.9577         Frozen                          !
 ! X88   R(88,-1)                3.9961         Frozen                          !
 ! Y88   R(88,-2)               -5.6041         Frozen                          !
 ! Z88   R(88,-3)               -3.8226         Frozen                          !
 ! X89   R(89,-1)                4.5218         Frozen                          !
 ! Y89   R(89,-2)                1.7919         Frozen                          !
 ! Z89   R(89,-3)                4.8995         Frozen                          !
 ! X90   R(90,-1)                4.2792         Frozen                          !
 ! Y90   R(90,-2)                2.7091         Frozen                          !
 ! Z90   R(90,-3)                4.7391         Frozen                          !
 ! X91   R(91,-1)                5.1279         Frozen                          !
 ! Y91   R(91,-2)                1.532          Frozen                          !
 ! Z91   R(91,-3)                4.1981         Frozen                          !
 ! X92   R(92,-1)                6.7519         Frozen                          !
 ! Y92   R(92,-2)                3.4339         Frozen                          !
 ! Z92   R(92,-3)               -3.736          Frozen                          !
 ! X93   R(93,-1)                6.0414         Frozen                          !
 ! Y93   R(93,-2)                3.6706         Frozen                          !
 ! Z93   R(93,-3)               -4.3414         Frozen                          !
 ! X94   R(94,-1)                6.4204         Frozen                          !
 ! Y94   R(94,-2)                2.7102         Frozen                          !
 ! Z94   R(94,-3)               -3.1927         Frozen                          !
 ! X95   R(95,-1)               -0.2677         Frozen                          !
 ! Y95   R(95,-2)               -7.7936         Frozen                          !
 ! Z95   R(95,-3)                2.6376         Frozen                          !
 ! X96   R(96,-1)                0.2604         Frozen                          !
 ! Y96   R(96,-2)               -7.6963         Frozen                          !
 ! Z96   R(96,-3)                3.4362         Frozen                          !
 ! X97   R(97,-1)               -1.136          Frozen                          !
 ! Y97   R(97,-2)               -8.1118         Frozen                          !
 ! Z97   R(97,-3)                2.9053         Frozen                          !
 ! X98   R(98,-1)                2.878          Frozen                          !
 ! Y98   R(98,-2)                7.9595         Frozen                          !
 ! Z98   R(98,-3)                1.4742         Frozen                          !
 ! X99   R(99,-1)                2.8104         Frozen                          !
 ! Y99   R(99,-2)                8.9146         Frozen                          !
 ! Z99   R(99,-3)                1.3848         Frozen                          !
 ! X100  R(100,-1)               2.1184         Frozen                          !
 ! Y100  R(100,-2)               7.6658         Frozen                          !
 ! Z100  R(100,-3)               1.9873         Frozen                          !
 ! X101  R(101,-1)              -2.8038         Frozen                          !
 ! Y101  R(101,-2)              -2.4496         Frozen                          !
 ! Z101  R(101,-3)              -5.7091         Frozen                          !
 ! X102  R(102,-1)              -2.7984         Frozen                          !
 ! Y102  R(102,-2)              -1.5648         Frozen                          !
 ! Z102  R(102,-3)              -6.0874         Frozen                          !
 ! X103  R(103,-1)              -3.6786         Frozen                          !
 ! Y103  R(103,-2)              -2.5912         Frozen                          !
 ! Z103  R(103,-3)              -5.3342         Frozen                          !
 ! X104  R(104,-1)              -1.64           Frozen                          !
 ! Y104  R(104,-2)              -0.1658         Frozen                          !
 ! Z104  R(104,-3)               8.3151         Frozen                          !
 ! X105  R(105,-1)              -1.2511         Frozen                          !
 ! Y105  R(105,-2)               0.6055         Frozen                          !
 ! Z105  R(105,-3)               7.8889         Frozen                          !
 ! X106  R(106,-1)              -0.947          Frozen                          !
 ! Y106  R(106,-2)              -0.8315         Frozen                          !
 ! Z106  R(106,-3)               8.3724         Frozen                          !
 ! X107  R(107,-1)              -0.9037         Frozen                          !
 ! Y107  R(107,-2)               9.0244         Frozen                          !
 ! Z107  R(107,-3)              -1.568          Frozen                          !
 ! X108  R(108,-1)              -0.6007         Frozen                          !
 ! Y108  R(108,-2)               9.6628         Frozen                          !
 ! Z108  R(108,-3)              -2.2202         Frozen                          !
 ! X109  R(109,-1)              -0.569          Frozen                          !
 ! Y109  R(109,-2)               8.163          Frozen                          !
 ! Z109  R(109,-3)              -1.84           Frozen                          !
 ! X110  R(110,-1)              -7.5428         Frozen                          !
 ! Y110  R(110,-2)              -4.5975         Frozen                          !
 ! Z110  R(110,-3)              -1.5682         Frozen                          !
 ! X111  R(111,-1)              -7.6088         Frozen                          !
 ! Y111  R(111,-2)              -5.0376         Frozen                          !
 ! Z111  R(111,-3)              -0.715          Frozen                          !
 ! X112  R(112,-1)              -7.3568         Frozen                          !
 ! Y112  R(112,-2)              -5.276          Frozen                          !
 ! Z112  R(112,-3)              -2.2249         Frozen                          !
 ! X113  R(113,-1)              -6.8433         Frozen                          !
 ! Y113  R(113,-2)               2.0321         Frozen                          !
 ! Z113  R(113,-3)               2.2178         Frozen                          !
 ! X114  R(114,-1)              -6.519          Frozen                          !
 ! Y114  R(114,-2)               1.5637         Frozen                          !
 ! Z114  R(114,-3)               2.9935         Frozen                          !
 ! X115  R(115,-1)              -7.4209         Frozen                          !
 ! Y115  R(115,-2)               1.4247         Frozen                          !
 ! Z115  R(115,-3)               1.7442         Frozen                          !
 ! X116  R(116,-1)              -5.1249         Frozen                          !
 ! Y116  R(116,-2)               2.738          Frozen                          !
 ! Z116  R(116,-3)              -2.1519         Frozen                          !
 ! X117  R(117,-1)              -6.0658         Frozen                          !
 ! Y117  R(117,-2)               2.8184         Frozen                          !
 ! Z117  R(117,-3)              -2.3274         Frozen                          !
 ! X118  R(118,-1)              -5.0171         Frozen                          !
 ! Y118  R(118,-2)               2.8496         Frozen                          !
 ! Z118  R(118,-3)              -1.1889         Frozen                          !
 ! R1    R(1,2)                  1.4399         estimate D2E/DX2                !
 ! R2    R(1,12)                 1.4452         estimate D2E/DX2                !
 ! R3    R(1,22)                 1.4417         estimate D2E/DX2                !
 ! R4    R(2,3)                  1.5364         estimate D2E/DX2                !
 ! R5    R(2,4)                  2.1972         estimate D2E/DX2                !
 ! R6    R(2,5)                  1.0998         estimate D2E/DX2                !
 ! R7    R(3,6)                  1.5241         estimate D2E/DX2                !
 ! R8    R(3,7)                  1.1002         estimate D2E/DX2                !
 ! R9    R(3,8)                  1.1022         estimate D2E/DX2                !
 ! R10   R(4,32)                 0.9064         Frozen                          !
 ! R11   R(4,36)                 1.9479         estimate D2E/DX2                !
 ! R12   R(4,42)                 1.8192         estimate D2E/DX2                !
 ! R13   R(5,49)                 2.1719         estimate D2E/DX2                !
 ! R14   R(6,9)                  1.0988         estimate D2E/DX2                !
 ! R15   R(6,10)                 1.1008         estimate D2E/DX2                !
 ! R16   R(6,11)                 1.1            estimate D2E/DX2                !
 ! R17   R(8,68)                 2.5149         estimate D2E/DX2                !
 ! R18   R(9,59)                 2.4469         estimate D2E/DX2                !
 ! R19   R(12,13)                1.5341         estimate D2E/DX2                !
 ! R20   R(12,14)                1.1019         estimate D2E/DX2                !
 ! R21   R(12,15)                1.0989         estimate D2E/DX2                !
 ! R22   R(13,16)                1.5246         estimate D2E/DX2                !
 ! R23   R(13,17)                1.0999         estimate D2E/DX2                !
 ! R24   R(13,18)                1.1001         estimate D2E/DX2                !
 ! R25   R(15,41)                2.3094         estimate D2E/DX2                !
 ! R26   R(15,42)                2.1857         estimate D2E/DX2                !
 ! R27   R(16,19)                1.0987         estimate D2E/DX2                !
 ! R28   R(16,20)                1.0998         estimate D2E/DX2                !
 ! R29   R(16,21)                1.101          estimate D2E/DX2                !
 ! R30   R(17,62)                2.67           estimate D2E/DX2                !
 ! R31   R(18,53)                2.4387         estimate D2E/DX2                !
 ! R32   R(20,54)                2.4844         estimate D2E/DX2                !
 ! R33   R(21,56)                3.5944         estimate D2E/DX2                !
 ! R34   R(22,23)                1.5415         estimate D2E/DX2                !
 ! R35   R(22,24)                1.1025         estimate D2E/DX2                !
 ! R36   R(22,25)                1.1001         estimate D2E/DX2                !
 ! R37   R(23,26)                1.5248         estimate D2E/DX2                !
 ! R38   R(23,27)                1.1018         estimate D2E/DX2                !
 ! R39   R(23,28)                1.1013         estimate D2E/DX2                !
 ! R40   R(25,71)                2.4893         estimate D2E/DX2                !
 ! R41   R(26,29)                1.0983         estimate D2E/DX2                !
 ! R42   R(26,30)                1.1001         estimate D2E/DX2                !
 ! R43   R(26,31)                1.0997         estimate D2E/DX2                !
 ! R44   R(28,62)                2.6269         estimate D2E/DX2                !
 ! R45   R(29,110)               4.1849         estimate D2E/DX2                !
 ! R46   R(29,111)               4.2117         estimate D2E/DX2                !
 ! R47   R(31,78)                4.2954         estimate D2E/DX2                !
 ! R48   R(32,33)                0.9763         estimate D2E/DX2                !
 ! R49   R(32,34)                0.9794         estimate D2E/DX2                !
 ! R50   R(32,36)                1.8755         estimate D2E/DX2                !
 ! R51   R(33,38)                1.8961         estimate D2E/DX2                !
 ! R52   R(34,44)                1.8226         estimate D2E/DX2                !
 ! R53   R(35,36)                0.975          estimate D2E/DX2                !
 ! R54   R(35,37)                0.9654         estimate D2E/DX2                !
 ! R55   R(35,39)                1.8348         estimate D2E/DX2                !
 ! R56   R(37,105)               4.6462         estimate D2E/DX2                !
 ! R57   R(38,39)                0.9776         estimate D2E/DX2                !
 ! R58   R(38,40)                0.9829         estimate D2E/DX2                !
 ! R59   R(38,49)                1.8189         estimate D2E/DX2                !
 ! R60   R(40,80)                1.7738         estimate D2E/DX2                !
 ! R61   R(41,42)                0.9677         estimate D2E/DX2                !
 ! R62   R(41,43)                0.9729         estimate D2E/DX2                !
 ! R63   R(43,44)                1.9405         estimate D2E/DX2                !
 ! R64   R(43,94)                4.4474         estimate D2E/DX2                !
 ! R65   R(44,45)                0.9898         estimate D2E/DX2                !
 ! R66   R(44,46)                0.9659         estimate D2E/DX2                !
 ! R67   R(45,65)                1.7283         estimate D2E/DX2                !
 ! R68   R(47,48)                0.9724         estimate D2E/DX2                !
 ! R69   R(47,49)                0.9761         estimate D2E/DX2                !
 ! R70   R(48,78)                4.2759         estimate D2E/DX2                !
 ! R71   R(50,51)                0.9623         estimate D2E/DX2                !
 ! R72   R(50,52)                0.9617         estimate D2E/DX2                !
 ! R73   R(50,54)                1.9193         estimate D2E/DX2                !
 ! R74   R(52,83)                1.8616         estimate D2E/DX2                !
 ! R75   R(53,54)                0.9685         estimate D2E/DX2                !
 ! R76   R(53,55)                0.9609         estimate D2E/DX2                !
 ! R77   R(55,86)                1.9845         estimate D2E/DX2                !
 ! R78   R(56,57)                0.9625         estimate D2E/DX2                !
 ! R79   R(56,58)                0.9611         estimate D2E/DX2                !
 ! R80   R(56,105)               4.7269         estimate D2E/DX2                !
 ! R81   R(56,106)               4.6527         estimate D2E/DX2                !
 ! R82   R(57,89)                1.899          estimate D2E/DX2                !
 ! R83   R(58,106)               4.739          estimate D2E/DX2                !
 ! R84   R(59,60)                0.9616         estimate D2E/DX2                !
 ! R85   R(59,61)                0.9619         estimate D2E/DX2                !
 ! R86   R(62,63)                0.9614         estimate D2E/DX2                !
 ! R87   R(62,64)                0.9613         estimate D2E/DX2                !
 ! R88   R(63,95)                1.916          estimate D2E/DX2                !
 ! R89   R(65,66)                0.9622         estimate D2E/DX2                !
 ! R90   R(65,67)                0.9625         estimate D2E/DX2                !
 ! R91   R(66,98)                1.8519         estimate D2E/DX2                !
 ! R92   R(66,109)               4.6281         estimate D2E/DX2                !
 ! R93   R(68,69)                0.9618         estimate D2E/DX2                !
 ! R94   R(68,70)                0.9615         estimate D2E/DX2                !
 ! R95   R(69,101)               1.9            estimate D2E/DX2                !
 ! R96   R(71,72)                0.9618         estimate D2E/DX2                !
 ! R97   R(71,73)                0.9618         estimate D2E/DX2                !
 ! R98   R(72,104)               4.6789         estimate D2E/DX2                !
 ! R99   R(74,75)                0.9619         estimate D2E/DX2                !
 ! R100  R(74,76)                0.963          estimate D2E/DX2                !
 ! R101  R(74,81)                1.8446         estimate D2E/DX2                !
 ! R102  R(76,107)               4.6574         estimate D2E/DX2                !
 ! R103  R(76,109)               4.6475         estimate D2E/DX2                !
 ! R104  R(77,78)                0.9626         estimate D2E/DX2                !
 ! R105  R(77,79)                0.9621         estimate D2E/DX2                !
 ! R106  R(79,110)               1.9339         estimate D2E/DX2                !
 ! R107  R(80,81)                0.9801         estimate D2E/DX2                !
 ! R108  R(80,82)                0.9799         estimate D2E/DX2                !
 ! R109  R(80,118)               1.826          estimate D2E/DX2                !
 ! R110  R(82,113)               1.8849         estimate D2E/DX2                !
 ! R111  R(83,84)                0.9629         estimate D2E/DX2                !
 ! R112  R(83,85)                0.9625         estimate D2E/DX2                !
 ! R113  R(86,87)                0.962          estimate D2E/DX2                !
 ! R114  R(86,88)                0.9618         estimate D2E/DX2                !
 ! R115  R(89,90)                0.9622         estimate D2E/DX2                !
 ! R116  R(89,91)                0.9628         estimate D2E/DX2                !
 ! R117  R(92,93)                0.963          estimate D2E/DX2                !
 ! R118  R(92,94)                0.9637         estimate D2E/DX2                !
 ! R119  R(95,96)                0.9624         estimate D2E/DX2                !
 ! R120  R(95,97)                0.9627         estimate D2E/DX2                !
 ! R121  R(98,99)                0.9617         estimate D2E/DX2                !
 ! R122  R(98,100)               0.9626         estimate D2E/DX2                !
 ! R123  R(98,109)               4.7861         estimate D2E/DX2                !
 ! R124  R(99,107)               4.7461         estimate D2E/DX2                !
 ! R125  R(101,102)              0.9624         estimate D2E/DX2                !
 ! R126  R(101,103)              0.9622         estimate D2E/DX2                !
 ! R127  R(104,105)              0.9633         estimate D2E/DX2                !
 ! R128  R(104,106)              0.9626         estimate D2E/DX2                !
 ! R129  R(107,108)              0.9616         estimate D2E/DX2                !
 ! R130  R(107,109)              0.9634         estimate D2E/DX2                !
 ! R131  R(110,111)              0.9623         estimate D2E/DX2                !
 ! R132  R(110,112)              0.9625         estimate D2E/DX2                !
 ! R133  R(113,114)              0.9625         estimate D2E/DX2                !
 ! R134  R(113,115)              0.9627         estimate D2E/DX2                !
 ! R135  R(116,117)              0.9605         estimate D2E/DX2                !
 ! R136  R(116,118)              0.9754         estimate D2E/DX2                !
 ! A1    A(2,1,12)             119.8254         estimate D2E/DX2                !
 ! A2    A(2,1,22)             119.4031         estimate D2E/DX2                !
 ! A3    A(12,1,22)            120.7477         estimate D2E/DX2                !
 ! A4    A(1,2,3)              113.5631         estimate D2E/DX2                !
 ! A5    A(1,2,4)              104.4917         estimate D2E/DX2                !
 ! A6    A(1,2,5)              108.1743         estimate D2E/DX2                !
 ! A7    A(3,2,4)              116.0929         estimate D2E/DX2                !
 ! A8    A(3,2,5)              111.3108         estimate D2E/DX2                !
 ! A9    A(4,2,5)              102.2956         estimate D2E/DX2                !
 ! A10   A(2,3,6)              109.4226         estimate D2E/DX2                !
 ! A11   A(2,3,7)              110.232          estimate D2E/DX2                !
 ! A12   A(2,3,8)              108.8849         estimate D2E/DX2                !
 ! A13   A(6,3,7)              109.7586         estimate D2E/DX2                !
 ! A14   A(6,3,8)              111.0212         estimate D2E/DX2                !
 ! A15   A(7,3,8)              107.4995         estimate D2E/DX2                !
 ! A16   A(2,4,36)             104.9151         estimate D2E/DX2                !
 ! A17   A(2,4,42)              97.3375         estimate D2E/DX2                !
 ! A18   A(32,4,42)             88.9104         estimate D2E/DX2                !
 ! A19   A(36,4,42)             86.1193         estimate D2E/DX2                !
 ! A20   A(2,5,49)             144.292          estimate D2E/DX2                !
 ! A21   A(3,6,9)              111.3878         estimate D2E/DX2                !
 ! A22   A(3,6,10)             111.0544         estimate D2E/DX2                !
 ! A23   A(3,6,11)             109.3273         estimate D2E/DX2                !
 ! A24   A(9,6,10)             108.2175         estimate D2E/DX2                !
 ! A25   A(9,6,11)             108.4861         estimate D2E/DX2                !
 ! A26   A(10,6,11)            108.2795         estimate D2E/DX2                !
 ! A27   A(1,12,13)            112.773          estimate D2E/DX2                !
 ! A28   A(1,12,14)            106.1157         estimate D2E/DX2                !
 ! A29   A(1,12,15)            107.7815         estimate D2E/DX2                !
 ! A30   A(13,12,14)           110.4086         estimate D2E/DX2                !
 ! A31   A(13,12,15)           110.6618         estimate D2E/DX2                !
 ! A32   A(14,12,15)           108.9202         estimate D2E/DX2                !
 ! A33   A(12,13,16)           109.9513         estimate D2E/DX2                !
 ! A34   A(12,13,17)           110.1901         estimate D2E/DX2                !
 ! A35   A(12,13,18)           109.4426         estimate D2E/DX2                !
 ! A36   A(16,13,17)           110.7358         estimate D2E/DX2                !
 ! A37   A(16,13,18)           108.5695         estimate D2E/DX2                !
 ! A38   A(17,13,18)           107.9019         estimate D2E/DX2                !
 ! A39   A(12,15,41)           159.3209         estimate D2E/DX2                !
 ! A40   A(12,15,42)           135.3781         estimate D2E/DX2                !
 ! A41   A(13,16,19)           109.9245         estimate D2E/DX2                !
 ! A42   A(13,16,20)           110.9137         estimate D2E/DX2                !
 ! A43   A(13,16,21)           111.6315         estimate D2E/DX2                !
 ! A44   A(19,16,20)           107.5387         estimate D2E/DX2                !
 ! A45   A(19,16,21)           108.2098         estimate D2E/DX2                !
 ! A46   A(20,16,21)           108.4923         estimate D2E/DX2                !
 ! A47   A(13,17,62)           128.5405         estimate D2E/DX2                !
 ! A48   A(13,18,53)           134.9912         estimate D2E/DX2                !
 ! A49   A(16,20,54)           126.2021         estimate D2E/DX2                !
 ! A50   A(16,21,56)           161.5345         estimate D2E/DX2                !
 ! A51   A(1,22,23)            111.7814         estimate D2E/DX2                !
 ! A52   A(1,22,24)            106.438          estimate D2E/DX2                !
 ! A53   A(1,22,25)            109.3837         estimate D2E/DX2                !
 ! A54   A(23,22,24)           108.5981         estimate D2E/DX2                !
 ! A55   A(23,22,25)           110.9006         estimate D2E/DX2                !
 ! A56   A(24,22,25)           109.6219         estimate D2E/DX2                !
 ! A57   A(22,23,26)           109.0827         estimate D2E/DX2                !
 ! A58   A(22,23,27)           109.9506         estimate D2E/DX2                !
 ! A59   A(22,23,28)           109.3878         estimate D2E/DX2                !
 ! A60   A(26,23,27)           110.4818         estimate D2E/DX2                !
 ! A61   A(26,23,28)           110.6733         estimate D2E/DX2                !
 ! A62   A(27,23,28)           107.2439         estimate D2E/DX2                !
 ! A63   A(22,25,71)           159.9859         estimate D2E/DX2                !
 ! A64   A(23,26,29)           110.9125         estimate D2E/DX2                !
 ! A65   A(23,26,30)           110.5935         estimate D2E/DX2                !
 ! A66   A(23,26,31)           110.1373         estimate D2E/DX2                !
 ! A67   A(29,26,30)           108.2114         estimate D2E/DX2                !
 ! A68   A(29,26,31)           108.3282         estimate D2E/DX2                !
 ! A69   A(30,26,31)           108.5817         estimate D2E/DX2                !
 ! A70   A(26,29,110)          120.9123         estimate D2E/DX2                !
 ! A71   A(26,29,111)          119.2491         estimate D2E/DX2                !
 ! A72   A(26,31,78)           139.9753         estimate D2E/DX2                !
 ! A73   A(4,32,33)             83.8217         estimate D2E/DX2                !
 ! A74   A(4,32,34)            110.5471         estimate D2E/DX2                !
 ! A75   A(33,32,34)           109.068          estimate D2E/DX2                !
 ! A76   A(33,32,36)            92.2721         estimate D2E/DX2                !
 ! A77   A(34,32,36)           156.4599         estimate D2E/DX2                !
 ! A78   A(32,33,38)           145.7058         estimate D2E/DX2                !
 ! A79   A(32,34,44)           159.6357         estimate D2E/DX2                !
 ! A80   A(36,35,37)           105.6241         estimate D2E/DX2                !
 ! A81   A(36,35,39)            90.459          estimate D2E/DX2                !
 ! A82   A(37,35,39)           120.8212         estimate D2E/DX2                !
 ! A83   A(4,36,35)            121.5509         estimate D2E/DX2                !
 ! A84   A(32,36,35)           143.0407         estimate D2E/DX2                !
 ! A85   A(33,38,39)            87.7672         estimate D2E/DX2                !
 ! A86   A(33,38,40)           129.6924         estimate D2E/DX2                !
 ! A87   A(33,38,49)           123.7031         estimate D2E/DX2                !
 ! A88   A(39,38,40)           107.2571         estimate D2E/DX2                !
 ! A89   A(39,38,49)           113.6362         estimate D2E/DX2                !
 ! A90   A(40,38,49)            94.314          estimate D2E/DX2                !
 ! A91   A(35,39,38)           151.4897         estimate D2E/DX2                !
 ! A92   A(38,40,80)           164.174          estimate D2E/DX2                !
 ! A93   A(15,41,43)           156.8766         estimate D2E/DX2                !
 ! A94   A(42,41,43)           100.2288         estimate D2E/DX2                !
 ! A95   A(4,42,15)             95.1587         estimate D2E/DX2                !
 ! A96   A(4,42,41)            134.7641         estimate D2E/DX2                !
 ! A97   A(41,43,44)           150.5234         estimate D2E/DX2                !
 ! A98   A(41,43,94)           119.7708         estimate D2E/DX2                !
 ! A99   A(44,43,94)            89.6632         estimate D2E/DX2                !
 ! A100  A(34,44,43)            78.0947         estimate D2E/DX2                !
 ! A101  A(34,44,45)           125.9007         estimate D2E/DX2                !
 ! A102  A(34,44,46)           111.307          estimate D2E/DX2                !
 ! A103  A(43,44,45)           121.0351         estimate D2E/DX2                !
 ! A104  A(43,44,46)           115.1008         estimate D2E/DX2                !
 ! A105  A(45,44,46)           104.3325         estimate D2E/DX2                !
 ! A106  A(48,47,49)           102.6001         estimate D2E/DX2                !
 ! A107  A(47,48,78)            99.3952         estimate D2E/DX2                !
 ! A108  A(5,49,38)             90.312          estimate D2E/DX2                !
 ! A109  A(5,49,47)             93.6119         estimate D2E/DX2                !
 ! A110  A(51,50,52)           107.302          estimate D2E/DX2                !
 ! A111  A(51,50,54)           120.0091         estimate D2E/DX2                !
 ! A112  A(52,50,54)           129.2503         estimate D2E/DX2                !
 ! A113  A(18,53,54)           110.6037         estimate D2E/DX2                !
 ! A114  A(18,53,55)           127.9957         estimate D2E/DX2                !
 ! A115  A(54,53,55)           106.3188         estimate D2E/DX2                !
 ! A116  A(20,54,50)            79.9068         estimate D2E/DX2                !
 ! A117  A(20,54,53)           103.5945         estimate D2E/DX2                !
 ! A118  A(21,56,57)           104.3651         estimate D2E/DX2                !
 ! A119  A(21,56,58)           110.27           estimate D2E/DX2                !
 ! A120  A(21,56,105)          118.4275         estimate D2E/DX2                !
 ! A121  A(21,56,106)          112.5942         estimate D2E/DX2                !
 ! A122  A(57,56,58)           107.1557         estimate D2E/DX2                !
 ! A123  A(57,56,105)          113.3905         estimate D2E/DX2                !
 ! A124  A(57,56,106)          131.0455         estimate D2E/DX2                !
 ! A125  A(58,56,105)          102.8595         estimate D2E/DX2                !
 ! A126  A(105,56,106)          18.9575         estimate D2E/DX2                !
 ! A127  A(9,59,60)            120.3425         estimate D2E/DX2                !
 ! A128  A(9,59,61)            120.0456         estimate D2E/DX2                !
 ! A129  A(60,59,61)           107.2071         estimate D2E/DX2                !
 ! A130  A(17,62,28)            51.6625         estimate D2E/DX2                !
 ! A131  A(17,62,63)           117.236          estimate D2E/DX2                !
 ! A132  A(17,62,64)           129.0425         estimate D2E/DX2                !
 ! A133  A(28,62,63)           133.2152         estimate D2E/DX2                !
 ! A134  A(28,62,64)           111.7249         estimate D2E/DX2                !
 ! A135  A(63,62,64)           106.8518         estimate D2E/DX2                !
 ! A136  A(45,65,66)           116.1893         estimate D2E/DX2                !
 ! A137  A(45,65,67)           114.599          estimate D2E/DX2                !
 ! A138  A(66,65,67)           107.31           estimate D2E/DX2                !
 ! A139  A(65,66,109)           96.1685         estimate D2E/DX2                !
 ! A140  A(8,68,69)            122.3342         estimate D2E/DX2                !
 ! A141  A(8,68,70)            117.3148         estimate D2E/DX2                !
 ! A142  A(69,68,70)           106.8502         estimate D2E/DX2                !
 ! A143  A(25,71,72)           117.2293         estimate D2E/DX2                !
 ! A144  A(25,71,73)           134.2777         estimate D2E/DX2                !
 ! A145  A(72,71,73)           106.7511         estimate D2E/DX2                !
 ! A146  A(71,72,104)          115.9718         estimate D2E/DX2                !
 ! A147  A(75,74,76)           107.3234         estimate D2E/DX2                !
 ! A148  A(75,74,81)           122.1931         estimate D2E/DX2                !
 ! A149  A(76,74,81)           116.5214         estimate D2E/DX2                !
 ! A150  A(74,76,107)          129.2393         estimate D2E/DX2                !
 ! A151  A(74,76,109)          126.1464         estimate D2E/DX2                !
 ! A152  A(78,77,79)           106.9973         estimate D2E/DX2                !
 ! A153  A(31,78,48)            50.3455         estimate D2E/DX2                !
 ! A154  A(31,78,77)           121.5694         estimate D2E/DX2                !
 ! A155  A(48,78,77)           155.6756         estimate D2E/DX2                !
 ! A156  A(40,80,81)           115.8118         estimate D2E/DX2                !
 ! A157  A(40,80,82)           120.6854         estimate D2E/DX2                !
 ! A158  A(40,80,118)           93.3866         estimate D2E/DX2                !
 ! A159  A(81,80,82)           107.6524         estimate D2E/DX2                !
 ! A160  A(81,80,118)          102.6164         estimate D2E/DX2                !
 ! A161  A(82,80,118)          114.7286         estimate D2E/DX2                !
 ! A162  A(52,83,84)           114.5712         estimate D2E/DX2                !
 ! A163  A(52,83,85)           114.696          estimate D2E/DX2                !
 ! A164  A(84,83,85)           107.1882         estimate D2E/DX2                !
 ! A165  A(55,86,87)           117.623          estimate D2E/DX2                !
 ! A166  A(55,86,88)           117.3732         estimate D2E/DX2                !
 ! A167  A(87,86,88)           107.135          estimate D2E/DX2                !
 ! A168  A(57,89,90)           123.9403         estimate D2E/DX2                !
 ! A169  A(57,89,91)           113.6895         estimate D2E/DX2                !
 ! A170  A(90,89,91)           107.1291         estimate D2E/DX2                !
 ! A171  A(93,92,94)           106.5682         estimate D2E/DX2                !
 ! A172  A(43,94,92)           133.8043         estimate D2E/DX2                !
 ! A173  A(63,95,96)           116.8757         estimate D2E/DX2                !
 ! A174  A(63,95,97)           122.0396         estimate D2E/DX2                !
 ! A175  A(96,95,97)           107.3118         estimate D2E/DX2                !
 ! A176  A(66,98,99)           122.0717         estimate D2E/DX2                !
 ! A177  A(66,98,100)          117.6083         estimate D2E/DX2                !
 ! A178  A(99,98,100)          107.28           estimate D2E/DX2                !
 ! A179  A(99,98,109)           80.9502         estimate D2E/DX2                !
 ! A180  A(100,98,109)          79.2633         estimate D2E/DX2                !
 ! A181  A(98,99,107)           97.8102         estimate D2E/DX2                !
 ! A182  A(69,101,102)         116.3877         estimate D2E/DX2                !
 ! A183  A(69,101,103)         110.4354         estimate D2E/DX2                !
 ! A184  A(102,101,103)        107.0708         estimate D2E/DX2                !
 ! A185  A(72,104,105)          97.5646         estimate D2E/DX2                !
 ! A186  A(72,104,106)          82.655          estimate D2E/DX2                !
 ! A187  A(105,104,106)        106.8272         estimate D2E/DX2                !
 ! A188  A(37,105,56)           57.6983         estimate D2E/DX2                !
 ! A189  A(37,105,104)         125.3308         estimate D2E/DX2                !
 ! A190  A(56,105,104)         113.0878         estimate D2E/DX2                !
 ! A191  A(56,106,104)         118.4557         estimate D2E/DX2                !
 ! A192  A(58,106,104)         127.9737         estimate D2E/DX2                !
 ! A193  A(76,107,99)          101.7634         estimate D2E/DX2                !
 ! A194  A(76,107,108)         155.9065         estimate D2E/DX2                !
 ! A195  A(99,107,108)         100.9923         estimate D2E/DX2                !
 ! A196  A(99,107,109)          83.2828         estimate D2E/DX2                !
 ! A197  A(108,107,109)        107.0161         estimate D2E/DX2                !
 ! A198  A(66,109,76)          108.359          estimate D2E/DX2                !
 ! A199  A(66,109,107)         115.6014         estimate D2E/DX2                !
 ! A200  A(76,109,98)           97.8018         estimate D2E/DX2                !
 ! A201  A(98,109,107)          95.3246         estimate D2E/DX2                !
 ! A202  A(29,110,79)          102.8097         estimate D2E/DX2                !
 ! A203  A(29,110,112)          95.7633         estimate D2E/DX2                !
 ! A204  A(79,110,111)         123.913          estimate D2E/DX2                !
 ! A205  A(79,110,112)         126.4984         estimate D2E/DX2                !
 ! A206  A(111,110,112)        107.2            estimate D2E/DX2                !
 ! A207  A(82,113,114)         115.5621         estimate D2E/DX2                !
 ! A208  A(82,113,115)         115.1568         estimate D2E/DX2                !
 ! A209  A(114,113,115)        106.953          estimate D2E/DX2                !
 ! A210  A(117,116,118)        106.2062         estimate D2E/DX2                !
 ! A211  L(2,4,32,42,-1)       186.2479         estimate D2E/DX2                !
[...]
     Eigenvalues ---    0.00821   0.00869   0.00943   0.00979   0.01031
     Eigenvalues ---    0.01110   0.01158   0.01285   0.01313   0.01384
     Eigenvalues ---    0.01527   0.01592   0.01664   0.01761   0.01826
     Eigenvalues ---    0.01883   0.02107   0.02120   0.02421   0.02481
     Eigenvalues ---    0.02573   0.02687   0.02798   0.02838   0.02966
     Eigenvalues ---    0.03027   0.03145   0.03247   0.03372   0.03501
     Eigenvalues ---    0.03614   0.03672   0.03767   0.03825   0.03953
     Eigenvalues ---    0.04037   0.04159   0.04232   0.04284   0.04364
     Eigenvalues ---    0.04437   0.04527   0.04667   0.04744   0.04864
     Eigenvalues ---    0.04976   0.05012   0.05034   0.05109   0.05320
     Eigenvalues ---    0.05437   0.05570   0.05739   0.05893   0.06155
     Eigenvalues ---    0.06339   0.06440   0.06523   0.06666   0.06768
     Eigenvalues ---    0.06840   0.07033   0.07152   0.07342   0.07416
     Eigenvalues ---    0.07665   0.07795   0.07862   0.08082   0.08540
     Eigenvalues ---    0.08734   0.09103   0.09283   0.09308   0.09741
     Eigenvalues ---    0.09785   0.10051   0.10185   0.10530   0.11327
     Eigenvalues ---    0.11405   0.11768   0.12027   0.12370   0.13037
     Eigenvalues ---    0.13437   0.14141   0.14758   0.15444   0.19785
     Eigenvalues ---    0.20526   0.20997   0.21981   0.23015   0.25133
     Eigenvalues ---    0.25628   0.26468   0.26699   0.27221   0.27565
     Eigenvalues ---    0.27920   0.28875   0.29122   0.29605   0.29910
     Eigenvalues ---    0.31496   0.31682   0.32312   0.32464   0.33379
     Eigenvalues ---    0.33442   0.33510   0.33658   0.33705   0.33713
     Eigenvalues ---    0.33803   0.34005   0.34092   0.35232   0.36797
     Eigenvalues ---    0.39444   0.42726   0.43954   0.45378   0.47339
     Eigenvalues ---    0.48999   0.50556   0.52374   0.54130   0.54549
     Eigenvalues ---    0.976121000.000001000.000001000.000001000.00000
     Eigenvalues --- 1000.000001000.000001000.000001000.000001000.00000
     Eigenvalues --- 1000.000001000.000001000.000001000.000001000.00000
     Eigenvalues --- 1000.000001000.000001000.000001000.000001000.00000
     Eigenvalues --- 1000.000001000.000001000.000001000.000001000.00000
     Eigenvalues --- 1000.000001000.000001000.000001000.000001000.00000
     Eigenvalues --- 1000.000001000.000001000.000001000.000001000.00000
     Eigenvalues --- 1000.000001000.000001000.000001000.000001000.00000
     Eigenvalues --- 1000.000001000.000001000.000001000.000001000.00000
     Eigenvalues --- 1000.000001000.000001000.000001000.000001000.00000
     Eigenvalues --- 1000.000001000.000001000.000001000.000001000.00000
     Eigenvalues --- 1000.000001000.000001000.000001000.000001000.00000
     Eigenvalues --- 1000.000001000.000001000.000001000.000001000.00000
     Eigenvalues --- 1000.000001000.000001000.000001000.000001000.00000
     Eigenvalues --- 1000.000001000.000001000.000001000.000001000.00000
     Eigenvalues --- 1000.000001000.000001000.000001000.000001000.00000
     Eigenvalues --- 1000.000001000.000001000.000001000.000001000.00000
     Eigenvalues --- 1000.000001000.000001000.000001000.000001000.00000
     Eigenvalues --- 1000.000001000.000001000.000001000.000001000.00000
     Eigenvalues --- 1000.000001000.000001000.000001000.000001000.00000
     Eigenvalues --- 1000.000001000.000001000.000001000.000001000.00000
     Eigenvalues --- 1000.000001000.000001000.000001000.000001000.00000
     Eigenvalues --- 1000.000001000.000001000.000001000.000001000.00000
     Eigenvalues --- 1000.000001000.000001000.000001000.000001000.00000
     Eigenvalues --- 1000.000001000.000001000.000001000.000001000.00000
     Eigenvalues --- 1000.000001000.000001000.000001000.000001000.00000
     Eigenvalues --- 1000.000001000.000001000.000001000.000001000.00000
     Eigenvalues --- 1000.000001000.000001000.000001000.000001000.00000
     Eigenvalues --- 1000.000001000.000001000.000001000.000001000.00000
     Eigenvalues --- 1000.000001000.000001000.000001000.000001000.00000
     Eigenvalues --- 1000.000001000.000001000.000001000.000001000.00000
     Eigenvalues --- 1000.000001000.000001000.000001000.000001000.00000
     Eigenvalues --- 1000.000001000.000001000.000001000.000001000.00000
     Eigenvalues --- 1000.000001000.000001000.000001000.000001000.00000
     Eigenvalues --- 1000.000001000.000001000.000001000.000001000.00000
     Eigenvalues --- 1000.000001000.000001000.000001000.000001000.00000
     Eigenvalues --- 1000.000001000.000001000.000001000.000001000.00000
     Eigenvalues --- 1000.000001000.000001000.000001000.000001000.00000
     Eigenvalues --- 1000.000001000.000001000.000001000.000001000.00000
     Eigenvalues --- 1000.000001000.000001000.000001000.000001000.00000
     Eigenvalues --- 1000.000001000.000001000.000001000.000001000.00000
     Eigenvalues --- 1000.000001000.000001000.000001000.000001000.00000
     Eigenvalues --- 1000.000001000.000001000.000001000.000001000.00000
     Eigenvalues --- 1000.000001000.000001000.000001000.000001000.00000
     Eigenvalues --- 1000.000001000.000001000.000001000.000001000.00000
     Eigenvalues --- 1000.000001000.000001000.000001000.000001000.00000
     Eigenvalues --- 1000.000001000.000001000.000001000.000001000.00000
     Eigenvalues --- 1000.000001000.000001000.000001000.000001000.00000
     Eigenvalues --- 1000.000001000.000001000.000001000.000001000.00000
     Eigenvalues --- 1000.000001000.000001000.000001000.000001000.00000
     Eigenvalues --- 1000.000001000.000001000.000001000.000001000.00000
     Eigenvalues --- 1000.000001000.000001000.000001000.000001000.00000
     Eigenvalues --- 1000.000001000.000001000.000001000.000001000.00000
     Eigenvalues --- 1000.000001000.000001000.000001000.000001000.00000
     Eigenvalues --- 1000.000001000.000001000.000001000.000001000.00000
     Eigenvalues --- 1000.000001000.000001000.000001000.000001000.00000
     Eigenvalues --- 1000.000001000.000001000.000001000.000001000.00000
     Eigenvalues --- 1000.000001000.000001000.000001000.000001000.00000
     Eigenvalues --- 1000.000001000.000001000.000001000.000001000.00000
     Eigenvalues --- 1000.000001000.000001000.000001000.000001000.00000
     Eigenvalues --- 1000.000001000.000001000.000001000.000001000.00000
     Eigenvalues --- 1000.000001000.000001000.000001000.000001000.00000
     Eigenvalues --- 1000.000001000.000001000.000001000.000001000.00000
     Eigenvalues --- 1000.000001000.000001000.000001000.000001000.00000
     Eigenvalues --- 1000.000001000.000001000.000001000.000001000.00000
     Eigenvalues --- 1000.000001000.000001000.000001000.000001000.00000
     Eigenvalues --- 1000.000001000.000001000.000001000.000001000.00000
     Eigenvalues --- 1000.000001000.000001000.000001000.000001000.00000
     Eigenvalues --- 1000.000001000.000001000.000001000.000001000.00000
     Eigenvalues --- 1000.000001000.000001000.000001000.000001000.00000
     Eigenvalues --- 1000.000001000.000001000.000001000.000001000.00000
     Eigenvalues --- 1000.000001000.000001000.000001000.000001000.00000
     Eigenvalues --- 1000.000001000.000001000.000001000.000001000.00000
     Eigenvalues --- 1000.000001000.000001000.000001000.000001000.00000
     Eigenvalues --- 1000.000001000.000001000.000001000.000001000.00000
     Eigenvalues --- 1000.000001000.000001000.000001000.000001000.00000
     Eigenvalues --- 1000.000001000.000001000.000001000.000001000.00000
     Eigenvalues --- 1000.000001000.000001000.000001000.000001000.00000
     Eigenvalues --- 1000.000001000.000001000.000001000.000001000.00000
     Eigenvalues --- 1000.000001000.000001000.000001000.000001000.00000
     Eigenvalues --- 1000.000001000.000001000.000001000.000001000.00000
     Eigenvalues --- 1000.000001000.000001000.000001000.000001000.00000
     Eigenvalues --- 1000.000001000.000001000.000001000.000001000.00000
     Eigenvalues --- 1000.000001000.000001000.000001000.000001000.00000
     Eigenvalues --- 1000.000001000.000001000.000001000.000001000.00000
     Eigenvalues --- 1000.000001000.000001000.000001000.000001000.00000
     Eigenvalues --- 1000.000001000.000001000.000001000.000001000.00000
     Eigenvalues --- 1000.000001000.000001000.000001000.000001000.00000
     Eigenvalues --- 1000.000001000.000001000.000001000.000001000.00000
     Eigenvalues --- 1000.000001000.000001000.000001000.000001000.00000
     Eigenvalues --- 1000.000001000.000001000.000001000.000001000.00000
     Eigenvalues --- 1000.000001000.000001000.000001000.000001000.00000
     Eigenvalues --- 1000.000001000.000001000.000001000.000001000.00000
     Eigenvalues --- 1000.000001000.000001000.000001000.000001000.00000
     Eigenvalues --- 1000.000001000.000001000.000001000.000001000.00000
     Eigenvalues --- 1000.000001000.000001000.000001000.000001000.00000
     Eigenvalues --- 1000.000001000.000001000.000001000.000001000.00000
     Eigenvalues --- 1000.000001000.000001000.000001000.000001000.00000
     Eigenvalues --- 1000.000001000.000001000.000001000.000001000.00000
     Eigenvalues --- 1000.000001000.000001000.000001000.000001000.00000
     Eigenvalues --- 1000.000001000.000001000.000001000.000001000.00000
     Eigenvalues --- 1000.000001000.000001000.000001000.000001000.00000
     Eigenvalues --- 1000.000001000.000001000.000001000.000001000.00000
     Eigenvalues --- 1000.000001000.000001000.000001000.000001000.00000
     Eigenvalues --- 1000.000001000.000001000.000001000.000001000.00000
     Eigenvalues --- 1000.000001000.000001000.000001000.000001000.00000
     Eigenvalues --- 1000.000001000.000001000.000001000.000001000.00000
     Eigenvalues --- 1000.000001000.000001000.000001000.000001000.00000
     Eigenvalues --- 1000.000001000.000001000.000001000.000001000.00000
     Eigenvalues --- 1000.000001000.000001000.000001000.000001000.00000
     Eigenvalues --- 1000.000001000.000001000.000001000.000001000.00000
     Eigenvalues --- 1000.000001000.000001000.000001000.000001000.00000
     Eigenvalues --- 1000.000001000.000001000.000001000.000001000.00000
     Eigenvalues --- 1000.000001000.000001000.000001000.000001000.00000
     Eigenvalues --- 1000.000001000.000001000.000001000.000001000.00000
     Eigenvalues --- 1000.000001000.000001000.000001000.000001000.00000
     Eigenvalues --- 1000.000001000.000001000.000001000.000001000.00000
     Eigenvalues --- 1000.000001000.000001000.000001000.000001000.00000
     Eigenvalues --- 1000.000001000.000001000.000001000.000001000.00000
     Eigenvalues --- 1000.000001000.000001000.000001000.000001000.00000
     Eigenvalues --- 1000.000001000.000001000.000001000.000001000.00000
     Eigenvalues --- 1000.000001000.000001000.000001000.000001000.00000
     Eigenvalues --- 1000.000001000.000001000.000001000.000001000.00000
     Eigenvalues --- 1000.000001000.000001000.000001000.000001000.00000
     Eigenvalues --- 1000.000001000.000001000.000001000.000001000.00000
     Eigenvalues --- 1000.000001000.000001000.000001000.000001000.00000
     Eigenvalues --- 1000.000001000.000001000.000001000.000001000.00000
     Eigenvalues --- 1000.000001000.000001000.000001000.000001000.00000
     Eigenvalues --- 1000.000001000.000001000.000001000.000001000.00000
     Eigenvalues --- 1000.000001000.000001000.000001000.000001000.00000
     Eigenvalues --- 1000.000001000.000001000.000001000.000001000.00000
     Eigenvalues --- 1000.000001000.000001000.000001000.000001000.00000
     Eigenvalues --- 1000.000001000.000001000.000001000.000001000.00000
     Eigenvalues --- 1000.000001000.000001000.000001000.000001000.00000
     Eigenvalues --- 1000.000001000.000001000.000001000.000001000.00000
     Eigenvalues --- 1000.000001000.000001000.000001000.000001000.00000
     Eigenvalues --- 1000.000001000.000001000.000001000.000001000.00000
     Eigenvalues --- 1000.000001000.000001000.000001000.000001000.00000
     Eigenvalues --- 1000.000001000.000001000.000001000.000001000.00000
     Eigenvalues --- 1000.000001000.000001000.000001000.000001000.00000
     Eigenvalues --- 1000.000001000.000001000.000001000.000001000.00000
     Eigenvalues --- 1000.000001000.000001000.000001000.000001000.00000
     Eigenvalues --- 1000.000001000.000001000.000001000.000001000.00000
     Eigenvalues --- 1000.000001000.000001000.000001000.000001000.00000
     Eigenvalues --- 1000.000001000.000001000.000001000.000001000.00000
     Eigenvalues --- 1000.000001000.000001000.000001000.000001000.00000
     Eigenvalues --- 1000.000001000.000001000.000001000.000001000.00000
     Eigenvalues --- 1000.000001000.000001000.000001000.000001000.00000
     Eigenvalues --- 1000.000001000.000001000.000001000.000001000.00000
     Eigenvalues --- 1000.000001000.000001000.000001000.000001000.00000
     Eigenvalues --- 1000.000001000.000001000.000001000.000001000.00000
     Eigenvalues --- 1000.000001000.000001000.000001000.000001000.00000
     Eigenvalues --- 1000.000001000.000001000.000001000.000001000.00000
     Eigenvalues --- 1000.000001000.000001000.000001000.000001000.00000
 RFO step:  Lambda=-4.28178966D-03 EMin= 1.05572505D-04
 Quartic linear search produced a step of -0.63450.
 Maximum step size (   0.098) exceeded in Quadratic search.
    -- Step size scaled by   0.176
 Iteration  1 RMS(Cart)=  0.02254906 RMS(Int)=  0.07401091
 Iteration  2 RMS(Cart)=  0.00210315 RMS(Int)=  0.05726615
 Iteration  3 RMS(Cart)=  0.00060010 RMS(Int)=  0.04384733
 Iteration  4 RMS(Cart)=  0.00061391 RMS(Int)=  0.02911853
 Iteration  5 RMS(Cart)=  0.00068945 RMS(Int)=  0.01368364
 Iteration  6 RMS(Cart)=  0.00065758 RMS(Int)=  0.00153183
 Iteration  7 RMS(Cart)=  0.00012222 RMS(Int)=  0.00095398
 Iteration  8 RMS(Cart)=  0.00000834 RMS(Int)=  0.00093103
 Iteration  9 RMS(Cart)=  0.00000047 RMS(Int)=  0.00093047
 Iteration  1 RMS(Cart)=  0.00032470 RMS(Int)=  0.00033423
 Iteration  2 RMS(Cart)=  0.00007709 RMS(Int)=  0.00035475
 Iteration  3 RMS(Cart)=  0.00004014 RMS(Int)=  0.00037189
 Iteration  4 RMS(Cart)=  0.00002824 RMS(Int)=  0.00038540
 Iteration  5 RMS(Cart)=  0.00002206 RMS(Int)=  0.00039655
 Iteration  6 RMS(Cart)=  0.00001822 RMS(Int)=  0.00040609
 Iteration  7 RMS(Cart)=  0.00001557 RMS(Int)=  0.00041443
 Iteration  8 RMS(Cart)=  0.00001363 RMS(Int)=  0.00042187
 Iteration  9 RMS(Cart)=  0.00001214 RMS(Int)=  0.00042860
 Iteration 10 RMS(Cart)=  0.00001096 RMS(Int)=  0.00043474
 Iteration 11 RMS(Cart)=  0.00001000 RMS(Int)=  0.00044040
 Iteration 12 RMS(Cart)=  0.00000921 RMS(Int)=  0.00044565
 Iteration 13 RMS(Cart)=  0.00000853 RMS(Int)=  0.00045056
 Iteration 14 RMS(Cart)=  0.00000796 RMS(Int)=  0.00045517
 Iteration 15 RMS(Cart)=  0.00000746 RMS(Int)=  0.00045951
 Iteration 16 RMS(Cart)=  0.00000702 RMS(Int)=  0.00046362
 Iteration 17 RMS(Cart)=  0.00000664 RMS(Int)=  0.00046752
 Iteration 18 RMS(Cart)=  0.00000629 RMS(Int)=  0.00047124
 Iteration 19 RMS(Cart)=  0.00000598 RMS(Int)=  0.00047479
 Iteration 20 RMS(Cart)=  0.00000571 RMS(Int)=  0.00047818
 Iteration 21 RMS(Cart)=  0.00000546 RMS(Int)=  0.00048144
 Iteration 22 RMS(Cart)=  0.00000523 RMS(Int)=  0.00048457
 Iteration 23 RMS(Cart)=  0.00000502 RMS(Int)=  0.00048759
 Iteration 24 RMS(Cart)=  0.00000483 RMS(Int)=  0.00049050
 Iteration 25 RMS(Cart)=  0.00000465 RMS(Int)=  0.00049331
 Iteration 26 RMS(Cart)=  0.00000448 RMS(Int)=  0.00049603
 Iteration 27 RMS(Cart)=  0.00000433 RMS(Int)=  0.00049866
 Iteration 28 RMS(Cart)=  0.00000419 RMS(Int)=  0.00050121
 Iteration 29 RMS(Cart)=  0.00000406 RMS(Int)=  0.00050369
 Iteration 30 RMS(Cart)=  0.00000394 RMS(Int)=  0.00050610
 Iteration 31 RMS(Cart)=  0.00000382 RMS(Int)=  0.00050844
 Iteration 32 RMS(Cart)=  0.00000371 RMS(Int)=  0.00051072
 Iteration 33 RMS(Cart)=  0.00000361 RMS(Int)=  0.00051294
 Iteration 34 RMS(Cart)=  0.00000351 RMS(Int)=  0.00051510
 Iteration 35 RMS(Cart)=  0.00000342 RMS(Int)=  0.00051721
 Iteration 36 RMS(Cart)=  0.00000334 RMS(Int)=  0.00051928
 Iteration 37 RMS(Cart)=  0.00000325 RMS(Int)=  0.00052129
 Iteration 38 RMS(Cart)=  0.00000318 RMS(Int)=  0.00052326
 Iteration 39 RMS(Cart)=  0.00000310 RMS(Int)=  0.00052519
 Iteration 40 RMS(Cart)=  0.00000303 RMS(Int)=  0.00052707
 Iteration 41 RMS(Cart)=  0.00000297 RMS(Int)=  0.00052892
 Iteration 42 RMS(Cart)=  0.00000290 RMS(Int)=  0.00053073
 Iteration 43 RMS(Cart)=  0.00000284 RMS(Int)=  0.00053250
 Iteration 44 RMS(Cart)=  0.00000278 RMS(Int)=  0.00053424
 Iteration 45 RMS(Cart)=  0.00000273 RMS(Int)=  0.00053595
 Iteration 46 RMS(Cart)=  0.00000267 RMS(Int)=  0.00053763
 Iteration 47 RMS(Cart)=  0.00000262 RMS(Int)=  0.00053927
 Iteration 48 RMS(Cart)=  0.00000257 RMS(Int)=  0.00054089
 Iteration 49 RMS(Cart)=  0.00000253 RMS(Int)=  0.00054247
 Iteration 50 RMS(Cart)=  0.00000248 RMS(Int)=  0.00054404
 Iteration 51 RMS(Cart)=  0.00000244 RMS(Int)=  0.00054557
 Iteration 52 RMS(Cart)=  0.00000239 RMS(Int)=  0.00054708
 Iteration 53 RMS(Cart)=  0.00000235 RMS(Int)=  0.00054857
 Iteration 54 RMS(Cart)=  0.00000231 RMS(Int)=  0.00055003
 Iteration 55 RMS(Cart)=  0.00000228 RMS(Int)=  0.00055147
 Iteration 56 RMS(Cart)=  0.00000224 RMS(Int)=  0.00055289
 Iteration 57 RMS(Cart)=  0.00000221 RMS(Int)=  0.00055429
 Iteration 58 RMS(Cart)=  0.00000217 RMS(Int)=  0.00055566
 Iteration 59 RMS(Cart)=  0.00000214 RMS(Int)=  0.00055702
 Iteration 60 RMS(Cart)=  0.00000211 RMS(Int)=  0.00055836
 Iteration 61 RMS(Cart)=  0.00000208 RMS(Int)=  0.00055968
 Iteration 62 RMS(Cart)=  0.00000205 RMS(Int)=  0.00056098
 Iteration 63 RMS(Cart)=  0.00000202 RMS(Int)=  0.00056226
 Iteration 64 RMS(Cart)=  0.00000199 RMS(Int)=  0.00056353
 Iteration 65 RMS(Cart)=  0.00000196 RMS(Int)=  0.00056478
 Iteration 66 RMS(Cart)=  0.00000193 RMS(Int)=  0.00056601
 Iteration 67 RMS(Cart)=  0.00000191 RMS(Int)=  0.00056723
 Iteration 68 RMS(Cart)=  0.00000188 RMS(Int)=  0.00056844
 Iteration 69 RMS(Cart)=  0.00000186 RMS(Int)=  0.00056962
 Iteration 70 RMS(Cart)=  0.00000184 RMS(Int)=  0.00057080
 Iteration 71 RMS(Cart)=  0.00000181 RMS(Int)=  0.00057196
 Iteration 72 RMS(Cart)=  0.00000179 RMS(Int)=  0.00057311
 Iteration 73 RMS(Cart)=  0.00000177 RMS(Int)=  0.00057424
 Iteration 74 RMS(Cart)=  0.00000175 RMS(Int)=  0.00057536
 Iteration 75 RMS(Cart)=  0.00000173 RMS(Int)=  0.00057647
 Iteration 76 RMS(Cart)=  0.00000171 RMS(Int)=  0.00057756
 Iteration 77 RMS(Cart)=  0.00000169 RMS(Int)=  0.00057865
 Iteration 78 RMS(Cart)=  0.00000167 RMS(Int)=  0.00057972
 Iteration 79 RMS(Cart)=  0.00000165 RMS(Int)=  0.00058078
 Iteration 80 RMS(Cart)=  0.00000163 RMS(Int)=  0.00058183
 Iteration 81 RMS(Cart)=  0.00000161 RMS(Int)=  0.00058287
 Iteration 82 RMS(Cart)=  0.00000159 RMS(Int)=  0.00058389
 Iteration 83 RMS(Cart)=  0.00000158 RMS(Int)=  0.00058491
 Iteration 84 RMS(Cart)=  0.00000156 RMS(Int)=  0.00058592
 Iteration 85 RMS(Cart)=  0.00000154 RMS(Int)=  0.00058691
 Iteration 86 RMS(Cart)=  0.00000153 RMS(Int)=  0.00058790
 Iteration 87 RMS(Cart)=  0.00000151 RMS(Int)=  0.00058888
 Iteration 88 RMS(Cart)=  0.00000150 RMS(Int)=  0.00058984
 Iteration 89 RMS(Cart)=  0.00000148 RMS(Int)=  0.00059080
 Iteration 90 RMS(Cart)=  0.00000147 RMS(Int)=  0.00059175
 Iteration 91 RMS(Cart)=  0.00000145 RMS(Int)=  0.00059269
 Iteration 92 RMS(Cart)=  0.00000144 RMS(Int)=  0.00059362
 Iteration 93 RMS(Cart)=  0.00000142 RMS(Int)=  0.00059455
 Iteration 94 RMS(Cart)=  0.00000141 RMS(Int)=  0.00059546
 Iteration 95 RMS(Cart)=  0.00000140 RMS(Int)=  0.00059637
 Iteration 96 RMS(Cart)=  0.00000139 RMS(Int)=  0.00059727
 Iteration 97 RMS(Cart)=  0.00000137 RMS(Int)=  0.00059816
 Iteration 98 RMS(Cart)=  0.00000136 RMS(Int)=  0.00059904
 Iteration 99 RMS(Cart)=  0.00000135 RMS(Int)=  0.00059992
 Iteration100 RMS(Cart)=  0.00000134 RMS(Int)=  0.00060079
 New curvilinear step not converged.
 Error imposing constraints
 Error termination via Lnk1e in /leonardo/prod/opt/applications/g16/c02/binary/g16/l103.exe at Wed Mar  4 23:43:03 2026.
 Job cpu time:       2 days  9 hours  9 minutes 20.6 seconds.
 Elapsed time:       0 days  5 hours 21 minutes 15.7 seconds.
 File lengths (MBytes):  RWF=   2639 Int=      0 D2E=      0 Chk=    107 Scr=      1
