 Set GAUSS_PDEF to "12".
 Entering Gaussian System, Link 0=g16
 Initial command:
 /leonardo/prod/opt/applications/g16/c02/binary/g16/l1.exe "/leonardo_scratch/large/userexternal/morza000/g16_35403128/Gau-1732634.inp" -scrdir="/leonardo_scratch/large/userexternal/morza000/g16_35403128/"
 Default is to use a total of  12 processors:
                               12 via shared-memory
                                1 via Linda
 Entering Link 1 = /leonardo/prod/opt/applications/g16/c02/binary/g16/l1.exe PID=   1732642.
  
 Copyright (c) 1988-2021, Gaussian, Inc.  All Rights Reserved.
  
 This is part of the Gaussian(R) 16 program.  It is based on
 the Gaussian(R) 09 system (copyright 2009, Gaussian, Inc.),
 the Gaussian(R) 03 system (copyright 2003, Gaussian, Inc.),
 the Gaussian(R) 98 system (copyright 1998, Gaussian, Inc.),
 the Gaussian(R) 94 system (copyright 1995, Gaussian, Inc.),
 the Gaussian 92(TM) system (copyright 1992, Gaussian, Inc.),
 the Gaussian 90(TM) system (copyright 1990, Gaussian, Inc.),
 the Gaussian 88(TM) system (copyright 1988, Gaussian, Inc.),
 the Gaussian 86(TM) system (copyright 1986, Carnegie Mellon
 University), and the Gaussian 82(TM) system (copyright 1983,
 Carnegie Mellon University). Gaussian is a federally registered
 trademark of Gaussian, Inc.
  
 This software contains proprietary and confidential information,
 including trade secrets, belonging to Gaussian, Inc.
  
 This software is provided under written license and may be
 used, copied, transmitted, or stored only in accord with that
 written license.
  
 The following legend is applicable only to US Government
 contracts under FAR:
  
                    RESTRICTED RIGHTS LEGEND
  
 Use, reproduction and disclosure by the US Government is
 subject to restrictions as set forth in subparagraphs (a)
 and (c) of the Commercial Computer Software - Restricted
 Rights clause in FAR 52.227-19.
  
 Gaussian, Inc.
 340 Quinnipiac St., Bldg. 40, Wallingford CT 06492
  
  
 ---------------------------------------------------------------
 Warning -- This program may not be used in any manner that
 competes with the business of Gaussian, Inc. or will provide
 assistance to any competitor of Gaussian, Inc.  The licensee
 of this program is prohibited from giving any competitor of
 Gaussian, Inc. access to this program.  By using this program,
 the user acknowledges that Gaussian, Inc. is engaged in the
 business of creating and licensing software in the field of
 computational chemistry and represents and warrants to the
 licensee that it is not a competitor of Gaussian, Inc. and that
 it will not use this program in any manner prohibited above.
 ---------------------------------------------------------------
  

 Cite this work as:
 Gaussian 16, Revision C.02,
 M. J. Frisch, G. W. Trucks, H. B. Schlegel, G. E. Scuseria, 
 M. A. Robb, J. R. Cheeseman, G. Scalmani, V. Barone, 
 G. A. Petersson, H. Nakatsuji, X. Li, M. Caricato, A. V. Marenich, 
 J. Bloino, B. G. Janesko, R. Gomperts, B. Mennucci, H. P. Hratchian, 
 J. V. Ortiz, A. F. Izmaylov, J. L. Sonnenberg, D. Williams-Young, 
 F. Ding, F. Lipparini, F. Egidi, J. Goings, B. Peng, A. Petrone, 
 T. Henderson, D. Ranasinghe, V. G. Zakrzewski, J. Gao, N. Rega, 
 G. Zheng, W. Liang, M. Hada, M. Ehara, K. Toyota, R. Fukuda, 
 J. Hasegawa, M. Ishida, T. Nakajima, Y. Honda, O. Kitao, H. Nakai, 
 T. Vreven, K. Throssell, J. A. Montgomery, Jr., J. E. Peralta, 
 F. Ogliaro, M. J. Bearpark, J. J. Heyd, E. N. Brothers, K. N. Kudin, 
 V. N. Staroverov, T. A. Keith, R. Kobayashi, J. Normand, 
 K. Raghavachari, A. P. Rendell, J. C. Burant, S. S. Iyengar, 
 J. Tomasi, M. Cossi, J. M. Millam, M. Klene, C. Adamo, R. Cammi, 
 J. W. Ochterski, R. L. Martin, K. Morokuma, O. Farkas, 
 J. B. Foresman, and D. J. Fox, Gaussian, Inc., Wallingford CT, 2019.
 
 ******************************************
 Gaussian 16:  ES64L-G16RevC.02  7-Dec-2021
                 3-Mar-2026 
 ******************************************
 %nprocshared=12
 Will use up to   12 processors via shared memory.
 %mem=12GB
 ----------------------------------------------------------------------
 #p opt(addredundant) M062X/def2svp scrf=(cpcm,solvent=water) empirical
 dispersion=GD3
 ----------------------------------------------------------------------
 1/18=120,19=15,26=3,38=1/1,3;
 2/9=110,12=2,17=6,18=5,40=1/2;
 3/5=43,7=101,11=2,25=1,30=1,70=2101,71=1,72=1,74=-55,124=31/1,2,3;
 4//1;
 5/5=2,38=5,53=1/2;
 6/7=2,8=2,9=2,10=2,28=1/1;
 7//1,2,3,16;
 1/18=20,19=15,26=3/3(2);
 2/9=110/2;
 99//99;
 2/9=110/2;
 3/5=43,7=101,11=2,25=1,30=1,70=2105,71=1,72=1,74=-55,124=31/1,2,3;
 4/5=5,16=3,69=1/1;
 5/5=2,38=5,53=1/2;
 7//1,2,3,16;
 1/18=20,19=15,26=3/3(-5);
 2/9=110/2;
 6/7=2,8=2,9=2,10=2,19=2,28=1/1;
 99/9=1/99;
 Leave Link    1 at Tue Mar  3 11:37:15 2026, MaxMem=  1610612736 cpu:               0.1 elap:               0.7
 (Enter /leonardo/prod/opt/applications/g16/c02/binary/g16/l101.exe)
 -------------------
 Title Card Required
 -------------------
 Symbolic Z-matrix:
 Charge =  1 Multiplicity = 2
 N                    -0.16833  -0.93058   0.37843 
 C                    -0.1      -0.0386   -0.75268 
 C                     0.85873  -0.52071  -1.85091 
 H                     0.27129   1.01385  -0.31029 
 H                    -1.11772   0.10498  -1.1422 
 C                     1.09351   0.60757  -2.84841 
 H                     1.81507  -0.83473  -1.40641 
 H                     0.41928  -1.39956  -2.35024 
 H                     1.74605   0.28609  -3.67181 
 H                     0.14281   0.95589  -3.28004 
 H                     1.5702    1.45925  -2.34027 
 C                     1.02529  -1.20875   1.1439 
 C                     1.50138  -2.65984   0.98928 
 H                     0.7729   -1.00038   2.19542 
 H                     1.80074  -0.50163   0.81797 
 C                     2.81715  -2.85632   1.73402 
 H                     0.73488  -3.35339   1.36468 
 H                     1.66596  -2.88354  -0.07519 
 H                     3.09424  -3.91944   1.7282 
 H                     3.63105  -2.29909   1.24768 
 H                     2.74417  -2.52477   2.78146 
 C                    -1.43396  -1.51534   0.74277 
 C                    -1.80212  -2.70334  -0.1688 
 H                    -2.1926   -0.72585   0.61249 
 H                    -1.39849  -1.82972   1.79662 
 C                    -3.24934  -3.10378   0.09547 
 H                    -1.66513  -2.42378  -1.22552 
 H                    -1.12359  -3.54569   0.03767 
 H                    -3.52672  -3.98419  -0.49964 
 H                    -3.39541  -3.34737   1.15827 
 H                    -3.92758  -2.28028  -0.17111 
 O                     0.25764   3.16356   0.77105 
 H                    -0.61673   3.03372   0.35859 
 H                     0.84135   3.58349   0.10739 
 O                    -0.62678   1.08965   2.2788 
 H                    -0.10229   1.87132   2.01872 
 H                    -0.69084   1.1253    3.24132 
 O                    -2.31414   2.12823   0.39895 
 H                    -1.99137   1.68904   1.21032 
 H                    -3.16751   2.5615    0.62196 
 O                     2.60425   1.53458   0.20631 
 H                     1.87949   1.83374   0.77456 
 H                     2.72687   2.32137  -0.35392 
 O                     2.21923   4.04251  -0.99107 
 H                     2.77013   4.85144  -0.839 
 H                     1.94758   4.10347  -1.9158 
 O                    -3.50061   0.37163  -1.41076 
 H                    -4.10399   0.97501  -1.87719 
 H                    -3.04848   0.96773  -0.78361 
 O                     6.01504  -1.92951  -0.32826 
 H                     6.28735  -1.02353  -0.50438 
 H                     6.79164  -2.40731  -0.0226 
 O                     3.61456  -2.98806  -1.53144 
 H                     4.39453  -2.61162  -1.09802 
 H                     3.92791  -3.73228  -2.05227 
 O                     2.85079  -0.29855   5.66204 
 H                     3.30935   0.4895    5.35365 
 H                     3.38899  -0.68563   6.35786 
 O                     3.25846   0.07908  -5.588 
 H                     2.90826   0.0447   -6.48278 
 H                     3.98485  -0.54989  -5.54225 
 O                     0.13789  -5.79526   0.63573 
 H                     0.01838  -6.45547   1.32428 
 H                     0.40878  -6.26574  -0.15756 
 O                     3.67776   6.30748  -0.70356 
 H                     3.40122   6.89426   0.00708 
 H                     4.63112   6.19875  -0.6308 
 O                    -0.80008  -3.10749  -3.72219 
 H                    -1.44098  -2.88007  -4.40218 
 H                    -0.28626  -3.84689  -4.05945 
 O                    -1.96649  -2.90193   3.96161 
 H                    -2.70441  -2.52162   4.44729 
 H                    -1.52182  -3.50732   4.56226 
 O                    -4.86599   6.00077   0.38933 
 H                    -5.12962   6.43983  -0.42494 
 H                    -4.0735    6.44379   0.71039 
 O                    -8.36452  -1.97877  -2.07389 
 H                    -7.53562  -1.56497  -2.33457 
 H                    -8.16874  -2.8993   -1.87432 
 O                    -4.83278   3.1901    0.56821 
 H                    -4.91806   4.16654   0.57813 
 H                    -5.53012   2.82491   1.15139 
 O                     8.17715  -3.4434    0.66474 
 H                     8.06961  -3.69399   1.58825 
 H                     8.36003  -4.24906   0.17084 
 O                     4.66671  -5.06928  -3.31905 
 H                     5.32773  -4.76832  -3.94992 
 H                     4.03891  -5.61299  -3.80409 
 O                     4.53701   1.85186   4.86079 
 H                     4.2868    2.76597   4.69438 
 H                     5.1427    1.59143   4.15918 
 O                     6.72505   3.44631  -3.79441 
 H                     6.01093   3.67303  -4.39917 
 H                     6.4013    2.72434  -3.24462 
 O                    -0.18587  -7.78686   2.68685 
 H                     0.34413  -7.67955   3.48289 
 H                    -1.0508   -8.10969   2.9599 
 O                     2.83403   7.98084   1.39525 
 H                     2.75865   8.93473   1.29898 
 H                     2.07845   7.68514   1.91311 
 O                    -2.79143  -2.52514  -5.69067 
 H                    -2.79421  -1.64312  -6.07556 
 H                    -3.66388  -2.67072  -5.31174 
 O                    -1.59794  -0.12754   8.31211 
 H                    -1.21645   0.64338   7.87904 
 H                    -0.89962  -0.78747   8.37189 
 O                    -0.96618   8.99378  -1.64175 
 H                    -0.67024   9.62963  -2.29976 
 H                    -0.62559   8.13312  -1.90851 
 O                    -7.49974  -4.67841  -1.51755 
 H                    -7.55941  -5.11265  -0.66091 
 H                    -7.31068  -5.36041  -2.16983 
 O                    -6.83859   1.9845    2.21651 
 H                    -6.50805   1.52433   2.99452 
 H                    -7.41311   1.36918   1.74938 
 O                    -5.14056   2.6708   -2.16419 
 H                    -6.08261   2.74278  -2.33711 
 H                    -5.03043   2.79048  -1.20249 
 
 Add virtual bond connecting atoms O65        and H45        Dist= 3.25D+00.
 Add virtual bond connecting atoms O80        and H40        Dist= 3.37D+00.
 Add virtual bond connecting atoms H49        and O38        Dist= 3.42D+00.
 Add virtual bond connecting atoms O44        and H34        Dist= 3.44D+00.
 Add virtual bond connecting atoms H118       and O80        Dist= 3.45D+00.
 Add virtual bond connecting atoms H36        and O32        Dist= 3.46D+00.
 Add virtual bond connecting atoms O38        and H33        Dist= 3.64D+00.
 Add virtual bond connecting atoms H39        and O35        Dist= 3.47D+00.
 Add virtual bond connecting atoms H81        and O74        Dist= 3.49D+00.
 Add virtual bond connecting atoms O98        and H66        Dist= 3.50D+00.
 Add virtual bond connecting atoms O83        and H52        Dist= 3.52D+00.
 Add virtual bond connecting atoms O113       and H82        Dist= 3.56D+00.
 Add virtual bond connecting atoms O89        and H57        Dist= 3.59D+00.
 Add virtual bond connecting atoms O101       and H69        Dist= 3.59D+00.
 Add virtual bond connecting atoms O44        and H43        Dist= 3.60D+00.
 Add virtual bond connecting atoms O95        and H63        Dist= 3.62D+00.
 Add virtual bond connecting atoms H54        and O50        Dist= 3.63D+00.
 Add virtual bond connecting atoms O110       and H79        Dist= 3.65D+00.
 Add virtual bond connecting atoms O86        and H55        Dist= 3.75D+00.
 Add virtual bond connecting atoms H42        and H4         Dist= 3.98D+00.
 Add virtual bond connecting atoms H49        and H5         Dist= 4.05D+00.
 Add virtual bond connecting atoms O53        and H18        Dist= 4.60D+00.
 Add virtual bond connecting atoms H54        and H20        Dist= 4.70D+00.
 Add virtual bond connecting atoms O59        and H9         Dist= 4.63D+00.
 Add virtual bond connecting atoms O71        and H25        Dist= 4.69D+00.
 Add virtual bond connecting atoms O68        and H8         Dist= 4.74D+00.
 Add virtual bond connecting atoms O62        and H17        Dist= 4.95D+00.
 Add virtual bond connecting atoms O62        and H28        Dist= 5.00D+00.
 Add virtual bond connecting atoms O56        and H21        Dist= 6.88D+00.
 Add virtual bond connecting atoms H78        and H31        Dist= 8.06D+00.
 Add virtual bond connecting atoms H78        and H48        Dist= 8.11D+00.
 Add virtual bond connecting atoms O110       and H29        Dist= 7.86D+00.
 Add virtual bond connecting atoms H111       and H29        Dist= 7.92D+00.
 Add virtual bond connecting atoms O107       and H76        Dist= 8.80D+00.
 Add virtual bond connecting atoms O107       and H99        Dist= 8.97D+00.
 Add virtual bond connecting atoms H109       and H46        Dist= 9.04D+00.
 Add virtual bond connecting atoms H109       and H66        Dist= 8.75D+00.
 Add virtual bond connecting atoms H109       and H76        Dist= 8.78D+00.
 Add virtual bond connecting atoms O92        and H67        Dist= 8.86D+00.
 Add virtual bond connecting atoms H93        and H46        Dist= 9.04D+00.
 Add virtual bond connecting atoms H93        and O59        Dist= 8.84D+00.
 Add virtual bond connecting atoms H93        and H67        Dist= 8.96D+00.
 Add virtual bond connecting atoms H94        and H43        Dist= 8.87D+00.
 Add virtual bond connecting atoms O104       and H72        Dist= 8.84D+00.
 Add virtual bond connecting atoms H105       and H37        Dist= 8.87D+00.
 Add virtual bond connecting atoms H105       and O56        Dist= 8.93D+00.
 Add virtual bond connecting atoms H106       and O56        Dist= 8.79D+00.
 Add virtual bond connecting atoms H106       and H58        Dist= 8.96D+00.
 The following ModRedundant input section has been read:
 B       4      32 F                                                           
 X      50 F                                                                   
 X      51 F                                                                   
 X      52 F                                                                   
 X      53 F                                                                   
 X      54 F                                                                   
 X      55 F                                                                   
 X      56 F                                                                   
 X      57 F                                                                   
 X      58 F                                                                   
 X      59 F                                                                   
 X      60 F                                                                   
 X      61 F                                                                   
 X      62 F                                                                   
 X      63 F                                                                   
 X      64 F                                                                   
 X      65 F                                                                   
 X      66 F                                                                   
 X      67 F                                                                   
 X      68 F                                                                   
 X      69 F                                                                   
 X      70 F                                                                   
 X      71 F                                                                   
 X      72 F                                                                   
 X      73 F                                                                   
 X      74 F                                                                   
 X      75 F                                                                   
 X      76 F                                                                   
 X      77 F                                                                   
 X      78 F                                                                   
 X      79 F                                                                   
 X      80 F                                                                   
 X      81 F                                                                   
 X      82 F                                                                   
 X      83 F                                                                   
 X      84 F                                                                   
 X      85 F                                                                   
 X      86 F                                                                   
 X      87 F                                                                   
 X      88 F                                                                   
 X      89 F                                                                   
 X      90 F                                                                   
 X      91 F                                                                   
 X      92 F                                                                   
 X      93 F                                                                   
 X      94 F                                                                   
 X      95 F                                                                   
 X      96 F                                                                   
 X      97 F                                                                   
 X      98 F                                                                   
 X      99 F                                                                   
 X     100 F                                                                   
 X     101 F                                                                   
 X     102 F                                                                   
 X     103 F                                                                   
 X     104 F                                                                   
 X     105 F                                                                   
 X     106 F                                                                   
 X     107 F                                                                   
 X     108 F                                                                   
 X     109 F                                                                   
 X     110 F                                                                   
 X     111 F                                                                   
 X     112 F                                                                   
 X     113 F                                                                   
 X     114 F                                                                   
 X     115 F                                                                   
 X     116 F                                                                   
 X     117 F                                                                   
 X     118 F                                                                   
 
 ITRead=  0  0  0  0  0  0  0  0  0  0  0  0  0  0  0  0  0  0  0  0
 ITRead=  0  0  0  0  0  0  0  0  0  0  0  0  0  0  0  0  0  0  0  0
 ITRead=  0  0  0  0  0  0  0  0  0  0  0  0  0  0  0  0  0  0  0  0
 ITRead=  0  0  0  0  0  0  0  0  0  0  0  0  0  0  0  0  0  0  0  0
 ITRead=  0  0  0  0  0  0  0  0  0  0  0  0  0  0  0  0  0  0  0  0
 ITRead=  0  0  0  0  0  0  0  0  0  0  0  0  0  0  0  0  0  0
 MicOpt= -1 -1 -1 -1 -1 -1 -1 -1 -1 -1 -1 -1 -1 -1 -1 -1 -1 -1 -1 -1
 MicOpt= -1 -1 -1 -1 -1 -1 -1 -1 -1 -1 -1 -1 -1 -1 -1 -1 -1 -1 -1 -1
 MicOpt= -1 -1 -1 -1 -1 -1 -1 -1 -1 -1 -1 -1 -1 -1 -1 -1 -1 -1 -1 -1
 MicOpt= -1 -1 -1 -1 -1 -1 -1 -1 -1 -1 -1 -1 -1 -1 -1 -1 -1 -1 -1 -1
 MicOpt= -1 -1 -1 -1 -1 -1 -1 -1 -1 -1 -1 -1 -1 -1 -1 -1 -1 -1 -1 -1
 MicOpt= -1 -1 -1 -1 -1 -1 -1 -1 -1 -1 -1 -1 -1 -1 -1 -1 -1 -1
 NAtoms=    118 NQM=      118 NQMF=       0 NMMI=      0 NMMIF=      0
                NMic=       0 NMicF=      0.
                    Isotopes and Nuclear Properties:
 (Nuclear quadrupole moments (NQMom) in fm**2, nuclear magnetic moments (NMagM)
  in nuclear magnetons)

  Atom         1           2           3           4           5           6           7           8           9          10
 IAtWgt=          14          12          12           1           1          12           1           1           1           1
 AtmWgt=  14.0030740  12.0000000  12.0000000   1.0078250   1.0078250  12.0000000   1.0078250   1.0078250   1.0078250   1.0078250
 NucSpn=           2           0           0           1           1           0           1           1           1           1
 AtZEff=  -0.0000000  -0.0000000  -0.0000000  -0.0000000  -0.0000000  -0.0000000  -0.0000000  -0.0000000  -0.0000000  -0.0000000
 NQMom=    2.0440000   0.0000000   0.0000000   0.0000000   0.0000000   0.0000000   0.0000000   0.0000000   0.0000000   0.0000000
 NMagM=    0.4037610   0.0000000   0.0000000   2.7928460   2.7928460   0.0000000   2.7928460   2.7928460   2.7928460   2.7928460
 AtZNuc=   7.0000000   6.0000000   6.0000000   1.0000000   1.0000000   6.0000000   1.0000000   1.0000000   1.0000000   1.0000000

  Atom        11          12          13          14          15          16          17          18          19          20
 IAtWgt=           1          12          12           1           1          12           1           1           1           1
 AtmWgt=   1.0078250  12.0000000  12.0000000   1.0078250   1.0078250  12.0000000   1.0078250   1.0078250   1.0078250   1.0078250
 NucSpn=           1           0           0           1           1           0           1           1           1           1
 AtZEff=  -0.0000000  -0.0000000  -0.0000000  -0.0000000  -0.0000000  -0.0000000  -0.0000000  -0.0000000  -0.0000000  -0.0000000
 NQMom=    0.0000000   0.0000000   0.0000000   0.0000000   0.0000000   0.0000000   0.0000000   0.0000000   0.0000000   0.0000000
 NMagM=    2.7928460   0.0000000   0.0000000   2.7928460   2.7928460   0.0000000   2.7928460   2.7928460   2.7928460   2.7928460
 AtZNuc=   1.0000000   6.0000000   6.0000000   1.0000000   1.0000000   6.0000000   1.0000000   1.0000000   1.0000000   1.0000000

  Atom        21          22          23          24          25          26          27          28          29          30
 IAtWgt=           1          12          12           1           1          12           1           1           1           1
 AtmWgt=   1.0078250  12.0000000  12.0000000   1.0078250   1.0078250  12.0000000   1.0078250   1.0078250   1.0078250   1.0078250
 NucSpn=           1           0           0           1           1           0           1           1           1           1
 AtZEff=  -0.0000000  -0.0000000  -0.0000000  -0.0000000  -0.0000000  -0.0000000  -0.0000000  -0.0000000  -0.0000000  -0.0000000
 NQMom=    0.0000000   0.0000000   0.0000000   0.0000000   0.0000000   0.0000000   0.0000000   0.0000000   0.0000000   0.0000000
 NMagM=    2.7928460   0.0000000   0.0000000   2.7928460   2.7928460   0.0000000   2.7928460   2.7928460   2.7928460   2.7928460
 AtZNuc=   1.0000000   6.0000000   6.0000000   1.0000000   1.0000000   6.0000000   1.0000000   1.0000000   1.0000000   1.0000000

  Atom        31          32          33          34          35          36          37          38          39          40
 IAtWgt=           1          16           1           1          16           1           1          16           1           1
 AtmWgt=   1.0078250  15.9949146   1.0078250   1.0078250  15.9949146   1.0078250   1.0078250  15.9949146   1.0078250   1.0078250
 NucSpn=           1           0           1           1           0           1           1           0           1           1
 AtZEff=  -0.0000000  -0.0000000  -0.0000000  -0.0000000  -0.0000000  -0.0000000  -0.0000000  -0.0000000  -0.0000000  -0.0000000
 NQMom=    0.0000000   0.0000000   0.0000000   0.0000000   0.0000000   0.0000000   0.0000000   0.0000000   0.0000000   0.0000000
 NMagM=    2.7928460   0.0000000   2.7928460   2.7928460   0.0000000   2.7928460   2.7928460   0.0000000   2.7928460   2.7928460
 AtZNuc=   1.0000000   8.0000000   1.0000000   1.0000000   8.0000000   1.0000000   1.0000000   8.0000000   1.0000000   1.0000000

  Atom        41          42          43          44          45          46          47          48          49          50
 IAtWgt=          16           1           1          16           1           1          16           1           1          16
 AtmWgt=  15.9949146   1.0078250   1.0078250  15.9949146   1.0078250   1.0078250  15.9949146   1.0078250   1.0078250  15.9949146
 NucSpn=           0           1           1           0           1           1           0           1           1           0
 AtZEff=  -0.0000000  -0.0000000  -0.0000000  -0.0000000  -0.0000000  -0.0000000  -0.0000000  -0.0000000  -0.0000000  -0.0000000
 NQMom=    0.0000000   0.0000000   0.0000000   0.0000000   0.0000000   0.0000000   0.0000000   0.0000000   0.0000000   0.0000000
 NMagM=    0.0000000   2.7928460   2.7928460   0.0000000   2.7928460   2.7928460   0.0000000   2.7928460   2.7928460   0.0000000
 AtZNuc=   8.0000000   1.0000000   1.0000000   8.0000000   1.0000000   1.0000000   8.0000000   1.0000000   1.0000000   8.0000000

  Atom        51          52          53          54          55          56          57          58          59          60
 IAtWgt=           1           1          16           1           1          16           1           1          16           1
 AtmWgt=   1.0078250   1.0078250  15.9949146   1.0078250   1.0078250  15.9949146   1.0078250   1.0078250  15.9949146   1.0078250
 NucSpn=           1           1           0           1           1           0           1           1           0           1
 AtZEff=  -0.0000000  -0.0000000  -0.0000000  -0.0000000  -0.0000000  -0.0000000  -0.0000000  -0.0000000  -0.0000000  -0.0000000
 NQMom=    0.0000000   0.0000000   0.0000000   0.0000000   0.0000000   0.0000000   0.0000000   0.0000000   0.0000000   0.0000000
 NMagM=    2.7928460   2.7928460   0.0000000   2.7928460   2.7928460   0.0000000   2.7928460   2.7928460   0.0000000   2.7928460
 AtZNuc=   1.0000000   1.0000000   8.0000000   1.0000000   1.0000000   8.0000000   1.0000000   1.0000000   8.0000000   1.0000000

  Atom        61          62          63          64          65          66          67          68          69          70
 IAtWgt=           1          16           1           1          16           1           1          16           1           1
 AtmWgt=   1.0078250  15.9949146   1.0078250   1.0078250  15.9949146   1.0078250   1.0078250  15.9949146   1.0078250   1.0078250
 NucSpn=           1           0           1           1           0           1           1           0           1           1
 AtZEff=  -0.0000000  -0.0000000  -0.0000000  -0.0000000  -0.0000000  -0.0000000  -0.0000000  -0.0000000  -0.0000000  -0.0000000
 NQMom=    0.0000000   0.0000000   0.0000000   0.0000000   0.0000000   0.0000000   0.0000000   0.0000000   0.0000000   0.0000000
 NMagM=    2.7928460   0.0000000   2.7928460   2.7928460   0.0000000   2.7928460   2.7928460   0.0000000   2.7928460   2.7928460
 AtZNuc=   1.0000000   8.0000000   1.0000000   1.0000000   8.0000000   1.0000000   1.0000000   8.0000000   1.0000000   1.0000000

  Atom        71          72          73          74          75          76          77          78          79          80
 IAtWgt=          16           1           1          16           1           1          16           1           1          16
 AtmWgt=  15.9949146   1.0078250   1.0078250  15.9949146   1.0078250   1.0078250  15.9949146   1.0078250   1.0078250  15.9949146
 NucSpn=           0           1           1           0           1           1           0           1           1           0
 AtZEff=  -0.0000000  -0.0000000  -0.0000000  -0.0000000  -0.0000000  -0.0000000  -0.0000000  -0.0000000  -0.0000000  -0.0000000
 NQMom=    0.0000000   0.0000000   0.0000000   0.0000000   0.0000000   0.0000000   0.0000000   0.0000000   0.0000000   0.0000000
 NMagM=    0.0000000   2.7928460   2.7928460   0.0000000   2.7928460   2.7928460   0.0000000   2.7928460   2.7928460   0.0000000
 AtZNuc=   8.0000000   1.0000000   1.0000000   8.0000000   1.0000000   1.0000000   8.0000000   1.0000000   1.0000000   8.0000000

  Atom        81          82          83          84          85          86          87          88          89          90
 IAtWgt=           1           1          16           1           1          16           1           1          16           1
 AtmWgt=   1.0078250   1.0078250  15.9949146   1.0078250   1.0078250  15.9949146   1.0078250   1.0078250  15.9949146   1.0078250
 NucSpn=           1           1           0           1           1           0           1           1           0           1
 AtZEff=  -0.0000000  -0.0000000  -0.0000000  -0.0000000  -0.0000000  -0.0000000  -0.0000000  -0.0000000  -0.0000000  -0.0000000
 NQMom=    0.0000000   0.0000000   0.0000000   0.0000000   0.0000000   0.0000000   0.0000000   0.0000000   0.0000000   0.0000000
 NMagM=    2.7928460   2.7928460   0.0000000   2.7928460   2.7928460   0.0000000   2.7928460   2.7928460   0.0000000   2.7928460
 AtZNuc=   1.0000000   1.0000000   8.0000000   1.0000000   1.0000000   8.0000000   1.0000000   1.0000000   8.0000000   1.0000000

  Atom        91          92          93          94          95          96          97          98          99         100
 IAtWgt=           1          16           1           1          16           1           1          16           1           1
 AtmWgt=   1.0078250  15.9949146   1.0078250   1.0078250  15.9949146   1.0078250   1.0078250  15.9949146   1.0078250   1.0078250
 NucSpn=           1           0           1           1           0           1           1           0           1           1
 AtZEff=  -0.0000000  -0.0000000  -0.0000000  -0.0000000  -0.0000000  -0.0000000  -0.0000000  -0.0000000  -0.0000000  -0.0000000
 NQMom=    0.0000000   0.0000000   0.0000000   0.0000000   0.0000000   0.0000000   0.0000000   0.0000000   0.0000000   0.0000000
 NMagM=    2.7928460   0.0000000   2.7928460   2.7928460   0.0000000   2.7928460   2.7928460   0.0000000   2.7928460   2.7928460
 AtZNuc=   1.0000000   8.0000000   1.0000000   1.0000000   8.0000000   1.0000000   1.0000000   8.0000000   1.0000000   1.0000000

  Atom       101         102         103         104         105         106         107         108         109         110
 IAtWgt=          16           1           1          16           1           1          16           1           1          16
 AtmWgt=  15.9949146   1.0078250   1.0078250  15.9949146   1.0078250   1.0078250  15.9949146   1.0078250   1.0078250  15.9949146
 NucSpn=           0           1           1           0           1           1           0           1           1           0
 AtZEff=  -0.0000000  -0.0000000  -0.0000000  -0.0000000  -0.0000000  -0.0000000  -0.0000000  -0.0000000  -0.0000000  -0.0000000
 NQMom=    0.0000000   0.0000000   0.0000000   0.0000000   0.0000000   0.0000000   0.0000000   0.0000000   0.0000000   0.0000000
 NMagM=    0.0000000   2.7928460   2.7928460   0.0000000   2.7928460   2.7928460   0.0000000   2.7928460   2.7928460   0.0000000
 AtZNuc=   8.0000000   1.0000000   1.0000000   8.0000000   1.0000000   1.0000000   8.0000000   1.0000000   1.0000000   8.0000000

  Atom       111         112         113         114         115         116         117         118
 IAtWgt=           1           1          16           1           1          16           1           1
 AtmWgt=   1.0078250   1.0078250  15.9949146   1.0078250   1.0078250  15.9949146   1.0078250   1.0078250
 NucSpn=           1           1           0           1           1           0           1           1
 AtZEff=  -0.0000000  -0.0000000  -0.0000000  -0.0000000  -0.0000000  -0.0000000  -0.0000000  -0.0000000
 NQMom=    0.0000000   0.0000000   0.0000000   0.0000000   0.0000000   0.0000000   0.0000000   0.0000000
 NMagM=    2.7928460   2.7928460   0.0000000   2.7928460   2.7928460   0.0000000   2.7928460   2.7928460
 AtZNuc=   1.0000000   1.0000000   8.0000000   1.0000000   1.0000000   8.0000000   1.0000000   1.0000000
 Leave Link  101 at Tue Mar  3 11:37:16 2026, MaxMem=  1610612736 cpu:               0.4 elap:               0.5
 (Enter /leonardo/prod/opt/applications/g16/c02/binary/g16/l103.exe)

 GradGradGradGradGradGradGradGradGradGradGradGradGradGradGradGradGradGrad
 Berny optimization.
 Initialization pass.
                           ----------------------------
                           !    Initial Parameters    !
                           ! (Angstroms and Degrees)  !
 --------------------------                            --------------------------
 ! Name  Definition              Value          Derivative Info.                !
 --------------------------------------------------------------------------------
 ! X50   R(50,-1)                6.015          Frozen                          !
 ! Y50   R(50,-2)               -1.9295         Frozen                          !
 ! Z50   R(50,-3)               -0.3283         Frozen                          !
 ! X51   R(51,-1)                6.2873         Frozen                          !
 ! Y51   R(51,-2)               -1.0235         Frozen                          !
 ! Z51   R(51,-3)               -0.5044         Frozen                          !
 ! X52   R(52,-1)                6.7916         Frozen                          !
 ! Y52   R(52,-2)               -2.4073         Frozen                          !
 ! Z52   R(52,-3)               -0.0226         Frozen                          !
 ! X53   R(53,-1)                3.6146         Frozen                          !
 ! Y53   R(53,-2)               -2.9881         Frozen                          !
 ! Z53   R(53,-3)               -1.5314         Frozen                          !
 ! X54   R(54,-1)                4.3945         Frozen                          !
 ! Y54   R(54,-2)               -2.6116         Frozen                          !
 ! Z54   R(54,-3)               -1.098          Frozen                          !
 ! X55   R(55,-1)                3.9279         Frozen                          !
 ! Y55   R(55,-2)               -3.7323         Frozen                          !
 ! Z55   R(55,-3)               -2.0523         Frozen                          !
 ! X56   R(56,-1)                2.8508         Frozen                          !
 ! Y56   R(56,-2)               -0.2986         Frozen                          !
 ! Z56   R(56,-3)                5.662          Frozen                          !
 ! X57   R(57,-1)                3.3094         Frozen                          !
 ! Y57   R(57,-2)                0.4895         Frozen                          !
 ! Z57   R(57,-3)                5.3537         Frozen                          !
 ! X58   R(58,-1)                3.389          Frozen                          !
 ! Y58   R(58,-2)               -0.6856         Frozen                          !
 ! Z58   R(58,-3)                6.3579         Frozen                          !
 ! X59   R(59,-1)                3.2585         Frozen                          !
 ! Y59   R(59,-2)                0.0791         Frozen                          !
 ! Z59   R(59,-3)               -5.588          Frozen                          !
 ! X60   R(60,-1)                2.9083         Frozen                          !
 ! Y60   R(60,-2)                0.0447         Frozen                          !
 ! Z60   R(60,-3)               -6.4828         Frozen                          !
 ! X61   R(61,-1)                3.9848         Frozen                          !
 ! Y61   R(61,-2)               -0.5499         Frozen                          !
 ! Z61   R(61,-3)               -5.5423         Frozen                          !
 ! X62   R(62,-1)                0.1379         Frozen                          !
 ! Y62   R(62,-2)               -5.7953         Frozen                          !
 ! Z62   R(62,-3)                0.6357         Frozen                          !
 ! X63   R(63,-1)                0.0184         Frozen                          !
 ! Y63   R(63,-2)               -6.4555         Frozen                          !
 ! Z63   R(63,-3)                1.3243         Frozen                          !
 ! X64   R(64,-1)                0.4088         Frozen                          !
 ! Y64   R(64,-2)               -6.2657         Frozen                          !
 ! Z64   R(64,-3)               -0.1576         Frozen                          !
 ! X65   R(65,-1)                3.6778         Frozen                          !
 ! Y65   R(65,-2)                6.3075         Frozen                          !
 ! Z65   R(65,-3)               -0.7036         Frozen                          !
 ! X66   R(66,-1)                3.4012         Frozen                          !
 ! Y66   R(66,-2)                6.8943         Frozen                          !
 ! Z66   R(66,-3)                0.0071         Frozen                          !
 ! X67   R(67,-1)                4.6311         Frozen                          !
 ! Y67   R(67,-2)                6.1987         Frozen                          !
 ! Z67   R(67,-3)               -0.6308         Frozen                          !
 ! X68   R(68,-1)               -0.8001         Frozen                          !
 ! Y68   R(68,-2)               -3.1075         Frozen                          !
 ! Z68   R(68,-3)               -3.7222         Frozen                          !
 ! X69   R(69,-1)               -1.441          Frozen                          !
 ! Y69   R(69,-2)               -2.8801         Frozen                          !
 ! Z69   R(69,-3)               -4.4022         Frozen                          !
 ! X70   R(70,-1)               -0.2863         Frozen                          !
 ! Y70   R(70,-2)               -3.8469         Frozen                          !
 ! Z70   R(70,-3)               -4.0595         Frozen                          !
 ! X71   R(71,-1)               -1.9665         Frozen                          !
 ! Y71   R(71,-2)               -2.9019         Frozen                          !
 ! Z71   R(71,-3)                3.9616         Frozen                          !
 ! X72   R(72,-1)               -2.7044         Frozen                          !
 ! Y72   R(72,-2)               -2.5216         Frozen                          !
 ! Z72   R(72,-3)                4.4473         Frozen                          !
 ! X73   R(73,-1)               -1.5218         Frozen                          !
 ! Y73   R(73,-2)               -3.5073         Frozen                          !
 ! Z73   R(73,-3)                4.5623         Frozen                          !
 ! X74   R(74,-1)               -4.866          Frozen                          !
 ! Y74   R(74,-2)                6.0008         Frozen                          !
 ! Z74   R(74,-3)                0.3893         Frozen                          !
 ! X75   R(75,-1)               -5.1296         Frozen                          !
 ! Y75   R(75,-2)                6.4398         Frozen                          !
 ! Z75   R(75,-3)               -0.4249         Frozen                          !
 ! X76   R(76,-1)               -4.0735         Frozen                          !
 ! Y76   R(76,-2)                6.4438         Frozen                          !
 ! Z76   R(76,-3)                0.7104         Frozen                          !
 ! X77   R(77,-1)               -8.3645         Frozen                          !
 ! Y77   R(77,-2)               -1.9788         Frozen                          !
 ! Z77   R(77,-3)               -2.0739         Frozen                          !
 ! X78   R(78,-1)               -7.5356         Frozen                          !
 ! Y78   R(78,-2)               -1.565          Frozen                          !
 ! Z78   R(78,-3)               -2.3346         Frozen                          !
 ! X79   R(79,-1)               -8.1687         Frozen                          !
 ! Y79   R(79,-2)               -2.8993         Frozen                          !
 ! Z79   R(79,-3)               -1.8743         Frozen                          !
 ! X80   R(80,-1)               -4.8328         Frozen                          !
 ! Y80   R(80,-2)                3.1901         Frozen                          !
 ! Z80   R(80,-3)                0.5682         Frozen                          !
 ! X81   R(81,-1)               -4.9181         Frozen                          !
 ! Y81   R(81,-2)                4.1665         Frozen                          !
 ! Z81   R(81,-3)                0.5781         Frozen                          !
 ! X82   R(82,-1)               -5.5301         Frozen                          !
 ! Y82   R(82,-2)                2.8249         Frozen                          !
 ! Z82   R(82,-3)                1.1514         Frozen                          !
 ! X83   R(83,-1)                8.1771         Frozen                          !
 ! Y83   R(83,-2)               -3.4434         Frozen                          !
 ! Z83   R(83,-3)                0.6647         Frozen                          !
 ! X84   R(84,-1)                8.0696         Frozen                          !
 ! Y84   R(84,-2)               -3.694          Frozen                          !
 ! Z84   R(84,-3)                1.5883         Frozen                          !
 ! X85   R(85,-1)                8.36           Frozen                          !
 ! Y85   R(85,-2)               -4.2491         Frozen                          !
 ! Z85   R(85,-3)                0.1708         Frozen                          !
 ! X86   R(86,-1)                4.6667         Frozen                          !
 ! Y86   R(86,-2)               -5.0693         Frozen                          !
 ! Z86   R(86,-3)               -3.319          Frozen                          !
 ! X87   R(87,-1)                5.3277         Frozen                          !
 ! Y87   R(87,-2)               -4.7683         Frozen                          !
 ! Z87   R(87,-3)               -3.9499         Frozen                          !
 ! X88   R(88,-1)                4.0389         Frozen                          !
 ! Y88   R(88,-2)               -5.613          Frozen                          !
 ! Z88   R(88,-3)               -3.8041         Frozen                          !
 ! X89   R(89,-1)                4.537          Frozen                          !
 ! Y89   R(89,-2)                1.8519         Frozen                          !
 ! Z89   R(89,-3)                4.8608         Frozen                          !
 ! X90   R(90,-1)                4.2868         Frozen                          !
 ! Y90   R(90,-2)                2.766          Frozen                          !
 ! Z90   R(90,-3)                4.6944         Frozen                          !
 ! X91   R(91,-1)                5.1427         Frozen                          !
 ! Y91   R(91,-2)                1.5914         Frozen                          !
 ! Z91   R(91,-3)                4.1592         Frozen                          !
 ! X92   R(92,-1)                6.7251         Frozen                          !
 ! Y92   R(92,-2)                3.4463         Frozen                          !
 ! Z92   R(92,-3)               -3.7944         Frozen                          !
 ! X93   R(93,-1)                6.0109         Frozen                          !
 ! Y93   R(93,-2)                3.673          Frozen                          !
 ! Z93   R(93,-3)               -4.3992         Frozen                          !
 ! X94   R(94,-1)                6.4013         Frozen                          !
 ! Y94   R(94,-2)                2.7243         Frozen                          !
 ! Z94   R(94,-3)               -3.2446         Frozen                          !
 ! X95   R(95,-1)               -0.1859         Frozen                          !
 ! Y95   R(95,-2)               -7.7869         Frozen                          !
 ! Z95   R(95,-3)                2.6869         Frozen                          !
 ! X96   R(96,-1)                0.3441         Frozen                          !
 ! Y96   R(96,-2)               -7.6795         Frozen                          !
 ! Z96   R(96,-3)                3.4829         Frozen                          !
 ! X97   R(97,-1)               -1.0508         Frozen                          !
 ! Y97   R(97,-2)               -8.1097         Frozen                          !
 ! Z97   R(97,-3)                2.9599         Frozen                          !
 ! X98   R(98,-1)                2.834          Frozen                          !
 ! Y98   R(98,-2)                7.9808         Frozen                          !
 ! Z98   R(98,-3)                1.3952         Frozen                          !
 ! X99   R(99,-1)                2.7586         Frozen                          !
 ! Y99   R(99,-2)                8.9347         Frozen                          !
 ! Z99   R(99,-3)                1.299          Frozen                          !
 ! X100  R(100,-1)               2.0785         Frozen                          !
 ! Y100  R(100,-2)               7.6851         Frozen                          !
 ! Z100  R(100,-3)               1.9131         Frozen                          !
 ! X101  R(101,-1)              -2.7914         Frozen                          !
 ! Y101  R(101,-2)              -2.5251         Frozen                          !
 ! Z101  R(101,-3)              -5.6907         Frozen                          !
 ! X102  R(102,-1)              -2.7942         Frozen                          !
 ! Y102  R(102,-2)              -1.6431         Frozen                          !
 ! Z102  R(102,-3)              -6.0756         Frozen                          !
 ! X103  R(103,-1)              -3.6639         Frozen                          !
 ! Y103  R(103,-2)              -2.6707         Frozen                          !
 ! Z103  R(103,-3)              -5.3117         Frozen                          !
 ! X104  R(104,-1)              -1.5979         Frozen                          !
 ! Y104  R(104,-2)              -0.1275         Frozen                          !
 ! Z104  R(104,-3)               8.3121         Frozen                          !
 ! X105  R(105,-1)              -1.2165         Frozen                          !
 ! Y105  R(105,-2)               0.6434         Frozen                          !
 ! Z105  R(105,-3)               7.879          Frozen                          !
 ! X106  R(106,-1)              -0.8996         Frozen                          !
 ! Y106  R(106,-2)              -0.7875         Frozen                          !
 ! Z106  R(106,-3)               8.3719         Frozen                          !
 ! X107  R(107,-1)              -0.9662         Frozen                          !
 ! Y107  R(107,-2)               8.9938         Frozen                          !
 ! Z107  R(107,-3)              -1.6418         Frozen                          !
 ! X108  R(108,-1)              -0.6702         Frozen                          !
 ! Y108  R(108,-2)               9.6296         Frozen                          !
 ! Z108  R(108,-3)              -2.2998         Frozen                          !
 ! X109  R(109,-1)              -0.6256         Frozen                          !
 ! Y109  R(109,-2)               8.1331         Frozen                          !
 ! Z109  R(109,-3)              -1.9085         Frozen                          !
 ! X110  R(110,-1)              -7.4997         Frozen                          !
 ! Y110  R(110,-2)              -4.6784         Frozen                          !
 ! Z110  R(110,-3)              -1.5176         Frozen                          !
 ! X111  R(111,-1)              -7.5594         Frozen                          !
 ! Y111  R(111,-2)              -5.1126         Frozen                          !
 ! Z111  R(111,-3)              -0.6609         Frozen                          !
 ! X112  R(112,-1)              -7.3107         Frozen                          !
 ! Y112  R(112,-2)              -5.3604         Frozen                          !
 ! Z112  R(112,-3)              -2.1698         Frozen                          !
 ! X113  R(113,-1)              -6.8386         Frozen                          !
 ! Y113  R(113,-2)               1.9845         Frozen                          !
 ! Z113  R(113,-3)               2.2165         Frozen                          !
 ! X114  R(114,-1)              -6.508          Frozen                          !
 ! Y114  R(114,-2)               1.5243         Frozen                          !
 ! Z114  R(114,-3)               2.9945         Frozen                          !
 ! X115  R(115,-1)              -7.4131         Frozen                          !
 ! Y115  R(115,-2)               1.3692         Frozen                          !
 ! Z115  R(115,-3)               1.7494         Frozen                          !
 ! X116  R(116,-1)              -5.1406         Frozen                          !
 ! Y116  R(116,-2)               2.6708         Frozen                          !
 ! Z116  R(116,-3)              -2.1642         Frozen                          !
 ! X117  R(117,-1)              -6.0826         Frozen                          !
 ! Y117  R(117,-2)               2.7428         Frozen                          !
 ! Z117  R(117,-3)              -2.3371         Frozen                          !
 ! X118  R(118,-1)              -5.0304         Frozen                          !
 ! Y118  R(118,-2)               2.7905         Frozen                          !
 ! Z118  R(118,-3)              -1.2025         Frozen                          !
 ! R1    R(1,2)                  1.4421         estimate D2E/DX2                !
 ! R2    R(1,12)                 1.445          estimate D2E/DX2                !
 ! R3    R(1,22)                 1.441          estimate D2E/DX2                !
 ! R4    R(2,3)                  1.5355         estimate D2E/DX2                !
 ! R5    R(2,4)                  1.2005         estimate D2E/DX2                !
 ! R6    R(2,5)                  1.0991         estimate D2E/DX2                !
 ! R7    R(3,6)                  1.5242         estimate D2E/DX2                !
 ! R8    R(3,7)                  1.1004         estimate D2E/DX2                !
 ! R9    R(3,8)                  1.1022         estimate D2E/DX2                !
 ! R10   R(4,32)                 2.4064         Frozen                          !
 ! R11   R(4,42)                 2.106          estimate D2E/DX2                !
 ! R12   R(5,49)                 2.1449         estimate D2E/DX2                !
 ! R13   R(6,9)                  1.0987         estimate D2E/DX2                !
 ! R14   R(6,10)                 1.1007         estimate D2E/DX2                !
 ! R15   R(6,11)                 1.1004         estimate D2E/DX2                !
 ! R16   R(8,68)                 2.5072         estimate D2E/DX2                !
 ! R17   R(9,59)                 2.4499         estimate D2E/DX2                !
 ! R18   R(12,13)                1.535          estimate D2E/DX2                !
 ! R19   R(12,14)                1.1013         estimate D2E/DX2                !
 ! R20   R(12,15)                1.0989         estimate D2E/DX2                !
 ! R21   R(13,16)                1.5246         estimate D2E/DX2                !
 ! R22   R(13,17)                1.0998         estimate D2E/DX2                !
 ! R23   R(13,18)                1.1001         estimate D2E/DX2                !
 ! R24   R(16,19)                1.0987         estimate D2E/DX2                !
 ! R25   R(16,20)                1.0998         estimate D2E/DX2                !
 ! R26   R(16,21)                1.1011         estimate D2E/DX2                !
 ! R27   R(17,62)                2.6173         estimate D2E/DX2                !
 ! R28   R(18,53)                2.4349         estimate D2E/DX2                !
 ! R29   R(20,54)                2.4865         estimate D2E/DX2                !
 ! R30   R(21,56)                3.6421         estimate D2E/DX2                !
 ! R31   R(22,23)                1.542          estimate D2E/DX2                !
 ! R32   R(22,24)                1.1026         estimate D2E/DX2                !
 ! R33   R(22,25)                1.1003         estimate D2E/DX2                !
 ! R34   R(23,26)                1.5247         estimate D2E/DX2                !
 ! R35   R(23,27)                1.1016         estimate D2E/DX2                !
 ! R36   R(23,28)                1.1012         estimate D2E/DX2                !
 ! R37   R(25,71)                2.4818         estimate D2E/DX2                !
 ! R38   R(26,29)                1.0983         estimate D2E/DX2                !
 ! R39   R(26,30)                1.1001         estimate D2E/DX2                !
 ! R40   R(26,31)                1.0996         estimate D2E/DX2                !
 ! R41   R(28,62)                2.6476         estimate D2E/DX2                !
 ! R42   R(29,110)               4.1597         estimate D2E/DX2                !
 ! R43   R(29,111)               4.1907         estimate D2E/DX2                !
 ! R44   R(31,78)                4.2673         estimate D2E/DX2                !
 ! R45   R(32,33)                0.9755         estimate D2E/DX2                !
 ! R46   R(32,34)                0.9785         estimate D2E/DX2                !
 ! R47   R(32,36)                1.832          estimate D2E/DX2                !
 ! R48   R(33,38)                1.9243         estimate D2E/DX2                !
 ! R49   R(34,44)                1.821          estimate D2E/DX2                !
 ! R50   R(35,36)                0.9766         estimate D2E/DX2                !
 ! R51   R(35,37)                0.9653         estimate D2E/DX2                !
 ! R52   R(35,39)                1.8339         estimate D2E/DX2                !
 ! R53   R(37,105)               4.6922         estimate D2E/DX2                !
 ! R54   R(38,39)                0.9774         estimate D2E/DX2                !
 ! R55   R(38,40)                0.9827         estimate D2E/DX2                !
 ! R56   R(38,49)                1.8123         estimate D2E/DX2                !
 ! R57   R(40,80)                1.7808         estimate D2E/DX2                !
 ! R58   R(41,42)                0.9683         estimate D2E/DX2                !
 ! R59   R(41,43)                0.9736         estimate D2E/DX2                !
 ! R60   R(43,44)                1.9042         estimate D2E/DX2                !
 ! R61   R(43,94)                4.6925         estimate D2E/DX2                !
 ! R62   R(44,45)                0.9904         estimate D2E/DX2                !
 ! R63   R(44,46)                0.9657         estimate D2E/DX2                !
 ! R64   R(45,65)                1.7211         estimate D2E/DX2                !
 ! R65   R(46,93)                4.7815         estimate D2E/DX2                !
 ! R66   R(46,109)               4.7811         estimate D2E/DX2                !
 ! R67   R(47,48)                0.9725         estimate D2E/DX2                !
 ! R68   R(47,49)                0.9763         estimate D2E/DX2                !
 ! R69   R(48,78)                4.2938         estimate D2E/DX2                !
 ! R70   R(50,51)                0.9623         estimate D2E/DX2                !
 ! R71   R(50,52)                0.9617         estimate D2E/DX2                !
 ! R72   R(50,54)                1.9193         estimate D2E/DX2                !
 ! R73   R(52,83)                1.8616         estimate D2E/DX2                !
 ! R74   R(53,54)                0.9685         estimate D2E/DX2                !
 ! R75   R(53,55)                0.9609         estimate D2E/DX2                !
 ! R76   R(55,86)                1.9845         estimate D2E/DX2                !
 ! R77   R(56,57)                0.9625         estimate D2E/DX2                !
 ! R78   R(56,58)                0.9611         estimate D2E/DX2                !
 ! R79   R(56,105)               4.727          estimate D2E/DX2                !
 ! R80   R(56,106)               4.6527         estimate D2E/DX2                !
 ! R81   R(57,89)                1.899          estimate D2E/DX2                !
 ! R82   R(58,106)               4.7391         estimate D2E/DX2                !
 ! R83   R(59,60)                0.9615         estimate D2E/DX2                !
 ! R84   R(59,61)                0.9619         estimate D2E/DX2                !
 ! R85   R(59,93)                4.6804         estimate D2E/DX2                !
 ! R86   R(62,63)                0.9614         estimate D2E/DX2                !
 ! R87   R(62,64)                0.9613         estimate D2E/DX2                !
 ! R88   R(63,95)                1.916          estimate D2E/DX2                !
 ! R89   R(65,66)                0.9622         estimate D2E/DX2                !
 ! R90   R(65,67)                0.9623         estimate D2E/DX2                !
 ! R91   R(66,98)                1.8519         estimate D2E/DX2                !
 ! R92   R(66,109)               4.6281         estimate D2E/DX2                !
 ! R93   R(67,92)                4.6871         estimate D2E/DX2                !
 ! R94   R(67,93)                4.7417         estimate D2E/DX2                !
 ! R95   R(68,69)                0.9617         estimate D2E/DX2                !
 ! R96   R(68,70)                0.9615         estimate D2E/DX2                !
 ! R97   R(69,101)               1.9            estimate D2E/DX2                !
 ! R98   R(71,72)                0.9618         estimate D2E/DX2                !
 ! R99   R(71,73)                0.9618         estimate D2E/DX2                !
 ! R100  R(72,104)               4.679          estimate D2E/DX2                !
 ! R101  R(74,75)                0.9619         estimate D2E/DX2                !
 ! R102  R(74,76)                0.963          estimate D2E/DX2                !
 ! R103  R(74,81)                1.8447         estimate D2E/DX2                !
 ! R104  R(76,107)               4.6573         estimate D2E/DX2                !
 ! R105  R(76,109)               4.6476         estimate D2E/DX2                !
 ! R106  R(77,78)                0.9624         estimate D2E/DX2                !
 ! R107  R(77,79)                0.962          estimate D2E/DX2                !
 ! R108  R(79,110)               1.9339         estimate D2E/DX2                !
 ! R109  R(80,81)                0.9802         estimate D2E/DX2                !
 ! R110  R(80,82)                0.9797         estimate D2E/DX2                !
 ! R111  R(80,118)               1.826          estimate D2E/DX2                !
 ! R112  R(82,113)               1.8849         estimate D2E/DX2                !
 ! R113  R(83,84)                0.9629         estimate D2E/DX2                !
 ! R114  R(83,85)                0.9625         estimate D2E/DX2                !
 ! R115  R(86,87)                0.962          estimate D2E/DX2                !
 ! R116  R(86,88)                0.9618         estimate D2E/DX2                !
 ! R117  R(89,90)                0.9622         estimate D2E/DX2                !
 ! R118  R(89,91)                0.9628         estimate D2E/DX2                !
 ! R119  R(92,93)                0.9629         estimate D2E/DX2                !
 ! R120  R(92,94)                0.9635         estimate D2E/DX2                !
 ! R121  R(95,96)                0.9623         estimate D2E/DX2                !
 ! R122  R(95,97)                0.9627         estimate D2E/DX2                !
 ! R123  R(98,99)                0.9617         estimate D2E/DX2                !
 ! R124  R(98,100)               0.9626         estimate D2E/DX2                !
 ! R125  R(99,107)               4.7461         estimate D2E/DX2                !
 ! R126  R(101,102)              0.9623         estimate D2E/DX2                !
 ! R127  R(101,103)              0.9623         estimate D2E/DX2                !
 ! R128  R(104,105)              0.963          estimate D2E/DX2                !
 ! R129  R(104,106)              0.9627         estimate D2E/DX2                !
 ! R130  R(107,108)              0.9617         estimate D2E/DX2                !
 ! R131  R(107,109)              0.9633         estimate D2E/DX2                !
 ! R132  R(110,111)              0.9623         estimate D2E/DX2                !
 ! R133  R(110,112)              0.9625         estimate D2E/DX2                !
 ! R134  R(113,114)              0.9625         estimate D2E/DX2                !
 ! R135  R(113,115)              0.9628         estimate D2E/DX2                !
 ! R136  R(116,117)              0.9605         estimate D2E/DX2                !
 ! R137  R(116,118)              0.9754         estimate D2E/DX2                !
 ! A1    A(2,1,12)             119.6974         estimate D2E/DX2                !
 ! A2    A(2,1,22)             119.401          estimate D2E/DX2                !
 ! A3    A(12,1,22)            120.8934         estimate D2E/DX2                !
 ! A4    A(1,2,3)              113.3513         estimate D2E/DX2                !
 ! A5    A(1,2,4)              105.5373         estimate D2E/DX2                !
 ! A6    A(1,2,5)              108.3539         estimate D2E/DX2                !
 ! A7    A(3,2,4)              110.2252         estimate D2E/DX2                !
 ! A8    A(3,2,5)              111.4494         estimate D2E/DX2                !
 ! A9    A(4,2,5)              107.6044         estimate D2E/DX2                !
 ! A10   A(2,3,6)              109.3804         estimate D2E/DX2                !
 ! A11   A(2,3,7)              110.0806         estimate D2E/DX2                !
 ! A12   A(2,3,8)              108.9921         estimate D2E/DX2                !
 ! A13   A(6,3,7)              109.9835         estimate D2E/DX2                !
 ! A14   A(6,3,8)              110.8044         estimate D2E/DX2                !
 ! A15   A(7,3,8)              107.5765         estimate D2E/DX2                !
 ! A16   A(2,4,42)             140.1101         estimate D2E/DX2                !
 ! A17   A(2,5,49)             145.7682         estimate D2E/DX2                !
 ! A18   A(3,6,9)              111.4292         estimate D2E/DX2                !
 ! A19   A(3,6,10)             110.9687         estimate D2E/DX2                !
 ! A20   A(3,6,11)             109.7225         estimate D2E/DX2                !
 ! A21   A(9,6,10)             108.1619         estimate D2E/DX2                !
 ! A22   A(9,6,11)             108.3766         estimate D2E/DX2                !
 ! A23   A(10,6,11)            108.0796         estimate D2E/DX2                !
 ! A24   A(1,12,13)            112.6325         estimate D2E/DX2                !
 ! A25   A(1,12,14)            106.2642         estimate D2E/DX2                !
 ! A26   A(1,12,15)            107.5722         estimate D2E/DX2                !
 ! A27   A(13,12,14)           110.2504         estimate D2E/DX2                !
 ! A28   A(13,12,15)           111.0734         estimate D2E/DX2                !
 ! A29   A(14,12,15)           108.8547         estimate D2E/DX2                !
 ! A30   A(12,13,16)           109.8945         estimate D2E/DX2                !
 ! A31   A(12,13,17)           110.2192         estimate D2E/DX2                !
 ! A32   A(12,13,18)           109.6392         estimate D2E/DX2                !
 ! A33   A(16,13,17)           110.7006         estimate D2E/DX2                !
 ! A34   A(16,13,18)           108.5019         estimate D2E/DX2                !
 ! A35   A(17,13,18)           107.8379         estimate D2E/DX2                !
 ! A36   A(13,16,19)           109.8631         estimate D2E/DX2                !
 ! A37   A(13,16,20)           110.9393         estimate D2E/DX2                !
 ! A38   A(13,16,21)           111.6337         estimate D2E/DX2                !
 ! A39   A(19,16,20)           107.5358         estimate D2E/DX2                !
 ! A40   A(19,16,21)           108.248          estimate D2E/DX2                !
 ! A41   A(20,16,21)           108.4915         estimate D2E/DX2                !
 ! A42   A(13,17,62)           130.7126         estimate D2E/DX2                !
 ! A43   A(13,18,53)           135.0045         estimate D2E/DX2                !
 ! A44   A(16,20,54)           125.5018         estimate D2E/DX2                !
 ! A45   A(16,21,56)           159.145          estimate D2E/DX2                !
 ! A46   A(1,22,23)            111.8923         estimate D2E/DX2                !
 ! A47   A(1,22,24)            106.4908         estimate D2E/DX2                !
 ! A48   A(1,22,25)            109.2561         estimate D2E/DX2                !
 ! A49   A(23,22,24)           108.5122         estimate D2E/DX2                !
 ! A50   A(23,22,25)           110.7176         estimate D2E/DX2                !
 ! A51   A(24,22,25)           109.8719         estimate D2E/DX2                !
 ! A52   A(22,23,26)           109.0565         estimate D2E/DX2                !
 ! A53   A(22,23,27)           109.99           estimate D2E/DX2                !
 ! A54   A(22,23,28)           109.3524         estimate D2E/DX2                !
 ! A55   A(26,23,27)           110.5454         estimate D2E/DX2                !
 ! A56   A(26,23,28)           110.5777         estimate D2E/DX2                !
 ! A57   A(27,23,28)           107.2988         estimate D2E/DX2                !
 ! A58   A(22,25,71)           162.0938         estimate D2E/DX2                !
 ! A59   A(23,26,29)           110.8761         estimate D2E/DX2                !
 ! A60   A(23,26,30)           110.5877         estimate D2E/DX2                !
 ! A61   A(23,26,31)           110.2882         estimate D2E/DX2                !
 ! A62   A(29,26,30)           108.2069         estimate D2E/DX2                !
 ! A63   A(29,26,31)           108.2514         estimate D2E/DX2                !
 ! A64   A(30,26,31)           108.5498         estimate D2E/DX2                !
 ! A65   A(26,29,110)          120.5046         estimate D2E/DX2                !
 ! A66   A(26,29,111)          118.6689         estimate D2E/DX2                !
 ! A67   A(26,31,78)           140.3468         estimate D2E/DX2                !
 ! A68   A(33,32,34)           107.7611         estimate D2E/DX2                !
 ! A69   A(33,32,36)            91.0298         estimate D2E/DX2                !
 ! A70   A(34,32,36)           151.863          estimate D2E/DX2                !
 ! A71   A(32,33,38)           147.6155         estimate D2E/DX2                !
 ! A72   A(36,35,37)           105.7609         estimate D2E/DX2                !
 ! A73   A(36,35,39)            89.0177         estimate D2E/DX2                !
 ! A74   A(37,35,39)           121.2992         estimate D2E/DX2                !
 ! A75   A(32,36,35)           148.3731         estimate D2E/DX2                !
 ! A76   A(33,38,39)            86.42           estimate D2E/DX2                !
 ! A77   A(33,38,40)           124.2851         estimate D2E/DX2                !
 ! A78   A(33,38,49)           130.1708         estimate D2E/DX2                !
 ! A79   A(39,38,40)           107.2469         estimate D2E/DX2                !
 ! A80   A(39,38,49)           112.8134         estimate D2E/DX2                !
 ! A81   A(40,38,49)            94.5044         estimate D2E/DX2                !
 ! A82   A(35,39,38)           151.1908         estimate D2E/DX2                !
 ! A83   A(38,40,80)           163.9154         estimate D2E/DX2                !
 ! A84   A(42,41,43)           100.5021         estimate D2E/DX2                !
 ! A85   A(4,42,41)             98.5674         estimate D2E/DX2                !
 ! A86   A(41,43,44)           152.7955         estimate D2E/DX2                !
 ! A87   A(41,43,94)           121.4986         estimate D2E/DX2                !
 ! A88   A(44,43,94)            85.6993         estimate D2E/DX2                !
 ! A89   A(34,44,43)            76.8228         estimate D2E/DX2                !
 ! A90   A(34,44,45)           122.2854         estimate D2E/DX2                !
 ! A91   A(34,44,46)           112.3763         estimate D2E/DX2                !
 ! A92   A(43,44,45)           122.5858         estimate D2E/DX2                !
 ! A93   A(43,44,46)           116.9004         estimate D2E/DX2                !
 ! A94   A(45,44,46)           104.5912         estimate D2E/DX2                !
 ! A95   A(44,46,93)           104.631          estimate D2E/DX2                !
 ! A96   A(44,46,109)          101.72           estimate D2E/DX2                !
 ! A97   A(93,46,109)          122.2773         estimate D2E/DX2                !
 ! A98   A(48,47,49)           102.5105         estimate D2E/DX2                !
 ! A99   A(47,48,78)           100.3661         estimate D2E/DX2                !
 ! A100  A(5,49,38)             90.1097         estimate D2E/DX2                !
 ! A101  A(5,49,47)             93.6629         estimate D2E/DX2                !
 ! A102  A(51,50,52)           107.3028         estimate D2E/DX2                !
 ! A103  A(51,50,54)           120.0081         estimate D2E/DX2                !
 ! A104  A(52,50,54)           129.2508         estimate D2E/DX2                !
 ! A105  A(18,53,54)           111.1113         estimate D2E/DX2                !
 ! A106  A(18,53,55)           128.1992         estimate D2E/DX2                !
 ! A107  A(54,53,55)           106.3195         estimate D2E/DX2                !
 ! A108  A(20,54,50)            80.5744         estimate D2E/DX2                !
 ! A109  A(20,54,53)           102.9298         estimate D2E/DX2                !
 ! A110  A(21,56,57)           105.1289         estimate D2E/DX2                !
 ! A111  A(21,56,58)           110.0494         estimate D2E/DX2                !
 ! A112  A(21,56,105)          117.8753         estimate D2E/DX2                !
 ! A113  A(21,56,106)          111.8891         estimate D2E/DX2                !
 ! A114  A(57,56,58)           107.1538         estimate D2E/DX2                !
 ! A115  A(57,56,105)          113.394          estimate D2E/DX2                !
 ! A116  A(57,56,106)          131.0471         estimate D2E/DX2                !
 ! A117  A(58,56,105)          102.8577         estimate D2E/DX2                !
 ! A118  A(105,56,106)          18.9544         estimate D2E/DX2                !
 ! A119  A(9,59,60)            120.4015         estimate D2E/DX2                !
 ! A120  A(9,59,61)            118.9611         estimate D2E/DX2                !
 ! A121  A(9,59,93)             95.7101         estimate D2E/DX2                !
 ! A122  A(60,59,61)           107.2126         estimate D2E/DX2                !
 ! A123  A(60,59,93)           118.5573         estimate D2E/DX2                !
 ! A124  A(61,59,93)            92.6318         estimate D2E/DX2                !
 ! A125  A(17,62,28)            51.6019         estimate D2E/DX2                !
 ! A126  A(17,62,63)           118.0066         estimate D2E/DX2                !
 ! A127  A(17,62,64)           128.4758         estimate D2E/DX2                !
 ! A128  A(28,62,63)           133.3184         estimate D2E/DX2                !
 ! A129  A(28,62,64)           111.3286         estimate D2E/DX2                !
 ! A130  A(63,62,64)           106.8563         estimate D2E/DX2                !
 ! A131  A(45,65,66)           114.9911         estimate D2E/DX2                !
 ! A132  A(45,65,67)           115.6466         estimate D2E/DX2                !
 ! A133  A(66,65,67)           107.3257         estimate D2E/DX2                !
 ! A134  A(65,66,109)           96.1778         estimate D2E/DX2                !
 ! A135  A(98,66,109)           83.4953         estimate D2E/DX2                !
 ! A136  A(65,67,92)           117.2525         estimate D2E/DX2                !
 ! A137  A(65,67,93)           106.7615         estimate D2E/DX2                !
 ! A138  A(8,68,69)            123.3624         estimate D2E/DX2                !
 ! A139  A(8,68,70)            117.1227         estimate D2E/DX2                !
 ! A140  A(69,68,70)           106.8564         estimate D2E/DX2                !
 ! A141  A(25,71,72)           116.4406         estimate D2E/DX2                !
 ! A142  A(25,71,73)           135.3099         estimate D2E/DX2                !
 ! A143  A(72,71,73)           106.7535         estimate D2E/DX2                !
 ! A144  A(71,72,104)          115.9761         estimate D2E/DX2                !
 ! A145  A(75,74,76)           107.3239         estimate D2E/DX2                !
 ! A146  A(75,74,81)           122.1921         estimate D2E/DX2                !
 ! A147  A(76,74,81)           116.5221         estimate D2E/DX2                !
 ! A148  A(74,76,107)          129.2391         estimate D2E/DX2                !
 ! A149  A(74,76,109)          126.1466         estimate D2E/DX2                !
 ! A150  A(78,77,79)           106.9968         estimate D2E/DX2                !
 ! A151  A(31,78,48)            50.9074         estimate D2E/DX2                !
 ! A152  A(31,78,77)           121.2523         estimate D2E/DX2                !
 ! A153  A(48,78,77)           156.0375         estimate D2E/DX2                !
 ! A154  A(40,80,81)           115.6384         estimate D2E/DX2                !
 ! A155  A(40,80,82)           121.0705         estimate D2E/DX2                !
 ! A156  A(40,80,118)           93.0518         estimate D2E/DX2                !
 ! A157  A(81,80,82)           107.6609         estimate D2E/DX2                !
 ! A158  A(81,80,118)          102.6157         estimate D2E/DX2                !
 ! A159  A(82,80,118)          114.7485         estimate D2E/DX2                !
 ! A160  A(52,83,84)           114.5712         estimate D2E/DX2                !
 ! A161  A(52,83,85)           114.696          estimate D2E/DX2                !
 ! A162  A(84,83,85)           107.1884         estimate D2E/DX2                !
 ! A163  A(55,86,87)           117.6222         estimate D2E/DX2                !
 ! A164  A(55,86,88)           117.3734         estimate D2E/DX2                !
 ! A165  A(87,86,88)           107.1363         estimate D2E/DX2                !
 ! A166  A(57,89,90)           123.9397         estimate D2E/DX2                !
 ! A167  A(57,89,91)           113.6898         estimate D2E/DX2                !
 ! A168  A(90,89,91)           107.1293         estimate D2E/DX2                !
 ! A169  A(67,92,94)            84.5355         estimate D2E/DX2                !
 ! A170  A(93,92,94)           106.5963         estimate D2E/DX2                !
 ! A171  A(46,93,59)            72.6199         estimate D2E/DX2                !
 ! A172  A(46,93,67)            44.9282         estimate D2E/DX2                !
 ! A173  A(46,93,92)           108.981          estimate D2E/DX2                !
 ! A174  A(59,93,67)           116.088          estimate D2E/DX2                !
 ! A175  A(59,93,92)           114.5125         estimate D2E/DX2                !
 ! A176  A(43,94,92)           132.7635         estimate D2E/DX2                !
 ! A177  A(63,95,96)           116.8768         estimate D2E/DX2                !
 ! A178  A(63,95,97)           122.0382         estimate D2E/DX2                !
 ! A179  A(96,95,97)           107.3119         estimate D2E/DX2                !
 ! A180  A(66,98,99)           122.0702         estimate D2E/DX2                !
 ! A181  A(66,98,100)          117.6108         estimate D2E/DX2                !
 ! A182  A(99,98,100)          107.2798         estimate D2E/DX2                !
 ! A183  A(98,99,107)           97.8096         estimate D2E/DX2                !
 ! A184  A(69,101,102)         116.3914         estimate D2E/DX2                !
 ! A185  A(69,101,103)         110.4333         estimate D2E/DX2                !
 ! A186  A(102,101,103)        107.0699         estimate D2E/DX2                !
 ! A187  A(72,104,105)          97.5753         estimate D2E/DX2                !
 ! A188  A(72,104,106)          82.6502         estimate D2E/DX2                !
 ! A189  A(105,104,106)        106.8186         estimate D2E/DX2                !
 ! A190  A(37,105,56)           57.3522         estimate D2E/DX2                !
 ! A191  A(37,105,104)         124.825          estimate D2E/DX2                !
 ! A192  A(56,105,104)         113.0942         estimate D2E/DX2                !
 ! A193  A(56,106,104)         118.4582         estimate D2E/DX2                !
 ! A194  A(58,106,104)         127.9756         estimate D2E/DX2                !
 ! A195  A(76,107,99)          101.7641         estimate D2E/DX2                !
 ! A196  A(76,107,108)         155.9067         estimate D2E/DX2                !
 ! A197  A(99,107,108)         100.9915         estimate D2E/DX2                !
 ! A198  A(99,107,109)          83.2799         estimate D2E/DX2                !
 ! A199  A(108,107,109)        107.0051         estimate D2E/DX2                !
 ! A200  A(46,109,66)           46.1126         estimate D2E/DX2                !
 ! A201  A(46,109,76)           95.3807         estimate D2E/DX2                !
 ! A202  A(46,109,107)         160.6914         estimate D2E/DX2                !
 ! A203  A(66,109,76)          108.3577         estimate D2E/DX2                !
 ! A204  A(66,109,107)         115.606          estimate D2E/DX2                !
 ! A205  A(29,110,79)          102.8275         estimate D2E/DX2                !
 ! A206  A(29,110,112)          95.5368         estimate D2E/DX2                !
 ! A207  A(79,110,111)         123.9121         estimate D2E/DX2                !
 ! A208  A(79,110,112)         126.4983         estimate D2E/DX2                !
 ! A209  A(111,110,112)        107.2019         estimate D2E/DX2                !
 ! A210  A(82,113,114)         115.5665         estimate D2E/DX2                !
[...]
  Beta virt. eigenvalues --    1.09651   1.09811   1.10175   1.10418   1.10431
  Beta virt. eigenvalues --    1.10550   1.10936   1.11145   1.11285   1.11370
  Beta virt. eigenvalues --    1.12063   1.12352   1.12972   1.13214   1.13560
  Beta virt. eigenvalues --    1.13920   1.14162   1.14201   1.14327   1.14394
  Beta virt. eigenvalues --    1.14595   1.14750   1.14808   1.15425   1.15782
  Beta virt. eigenvalues --    1.16070   1.16958   1.17646   1.18750   1.19320
  Beta virt. eigenvalues --    1.19604   1.20479   1.21522   1.22037   1.22803
  Beta virt. eigenvalues --    1.23573   1.24317   1.25208   1.25466   1.26125
  Beta virt. eigenvalues --    1.27001   1.27816   1.29335   1.29886   1.30575
  Beta virt. eigenvalues --    1.31131   1.31381   1.31580   1.32041   1.32757
  Beta virt. eigenvalues --    1.32846   1.33707   1.34570   1.35452   1.36180
  Beta virt. eigenvalues --    1.36328   1.36715   1.37152   1.37366   1.37377
  Beta virt. eigenvalues --    1.37404   1.37508   1.37679   1.37715   1.37775
  Beta virt. eigenvalues --    1.37875   1.37933   1.38313   1.38615   1.38624
  Beta virt. eigenvalues --    1.38704   1.39011   1.39056   1.39077   1.39138
  Beta virt. eigenvalues --    1.39173   1.39479   1.39722   1.39923   1.40348
  Beta virt. eigenvalues --    1.40541   1.40712   1.40950   1.41150   1.41221
  Beta virt. eigenvalues --    1.41397   1.41781   1.42189   1.42244   1.42476
  Beta virt. eigenvalues --    1.43519   1.43710   1.44407   1.44660   1.45200
  Beta virt. eigenvalues --    1.46270   1.46627   1.47117   1.47260   1.47653
  Beta virt. eigenvalues --    1.47826   1.48137   1.48295   1.48403   1.48487
  Beta virt. eigenvalues --    1.48732   1.48983   1.49184   1.49303   1.49406
  Beta virt. eigenvalues --    1.49807   1.50411   1.51436   1.51960   1.53307
  Beta virt. eigenvalues --    1.54059   1.54302   1.55146   1.55876   1.56411
  Beta virt. eigenvalues --    1.57204   1.57624   1.58206   1.58441   1.58658
  Beta virt. eigenvalues --    1.58919   1.59160   1.59435   1.59552   1.60119
  Beta virt. eigenvalues --    1.60559   1.60910   1.61023   1.61104   1.61136
  Beta virt. eigenvalues --    1.61376   1.61858   1.62222   1.62517   1.62616
  Beta virt. eigenvalues --    1.62783   1.63276   1.63581   1.64064   1.64366
  Beta virt. eigenvalues --    1.64766   1.64837   1.65529   1.66135   1.66170
  Beta virt. eigenvalues --    1.66415   1.66732   1.66748   1.67341   1.67571
  Beta virt. eigenvalues --    1.67880   1.68214   1.68684   1.69655   1.70238
  Beta virt. eigenvalues --    1.70314   1.70946   1.71648   1.72392   1.73044
  Beta virt. eigenvalues --    1.74549   1.78269   1.79067   1.79291   1.80274
  Beta virt. eigenvalues --    1.80567   1.80648   1.80806   1.80865   1.80985
  Beta virt. eigenvalues --    1.81105   1.81145   1.81274   1.81313   1.81366
  Beta virt. eigenvalues --    1.81457   1.81464   1.81564   1.81751   1.82024
  Beta virt. eigenvalues --    1.82289   1.82290   1.82549   1.82879   1.82963
  Beta virt. eigenvalues --    1.83392   1.83732   1.84212   1.84382   1.84822
  Beta virt. eigenvalues --    1.84910   1.85272   1.85403   1.85756   1.86358
  Beta virt. eigenvalues --    1.86536   1.86815   1.87313   1.87621   1.87837
  Beta virt. eigenvalues --    1.88058   1.88748   1.89946   1.90334   1.90695
  Beta virt. eigenvalues --    1.91027   1.91406   1.92502   1.92753   1.93415
  Beta virt. eigenvalues --    1.94001   1.95120   1.95569   1.95835   1.96208
  Beta virt. eigenvalues --    1.97777   1.98394   1.98766   1.99375   2.00773
  Beta virt. eigenvalues --    2.01618   2.02151   2.03205   2.03836   2.05387
  Beta virt. eigenvalues --    2.07193   2.08059   2.08834   2.11161   2.14096
  Beta virt. eigenvalues --    2.14493   2.15497   2.21119   2.23889   2.26874
  Beta virt. eigenvalues --    2.27529   2.27635   2.27701   2.27732   2.27863
  Beta virt. eigenvalues --    2.27899   2.27937   2.28007   2.28094   2.28294
  Beta virt. eigenvalues --    2.28628   2.29042   2.29067   2.29255   2.29257
  Beta virt. eigenvalues --    2.29322   2.29413   2.29498   2.29607   2.29684
  Beta virt. eigenvalues --    2.29736   2.30458   2.30719   2.30806   2.30877
  Beta virt. eigenvalues --    2.30988   2.31125   2.31133   2.31234   2.31520
  Beta virt. eigenvalues --    2.31782   2.32109   2.32158   2.32193   2.32264
  Beta virt. eigenvalues --    2.32328   2.32363   2.32491   2.32512   2.32614
  Beta virt. eigenvalues --    2.33381   2.34935   2.36797   2.37973   2.39225
  Beta virt. eigenvalues --    2.39633   2.40668   2.41175   2.41829   2.42395
  Beta virt. eigenvalues --    2.42807   2.42935   2.43396   2.43573   2.44131
  Beta virt. eigenvalues --    2.44628   2.45097   2.45719   2.46575   2.46735
  Beta virt. eigenvalues --    2.47010   2.47078   2.48266   2.49009   2.49068
  Beta virt. eigenvalues --    2.49419   2.49820   2.50175   2.50913   2.52471
  Beta virt. eigenvalues --    2.53825   2.54791   2.56215   2.60005   2.60487
  Beta virt. eigenvalues --    2.60964   2.61391   2.61589   2.62197   2.62997
  Beta virt. eigenvalues --    2.69824   2.70689   2.71953   2.76346   2.76836
  Beta virt. eigenvalues --    2.85355   2.86448   2.87507   2.88098   2.91298
  Beta virt. eigenvalues --    2.92114   2.92593   2.94763   2.95520   2.95952
  Beta virt. eigenvalues --    2.96464   2.97030   2.98488   2.98540   2.98608
  Beta virt. eigenvalues --    2.98672   2.98741   2.98813   2.98841   2.98889
  Beta virt. eigenvalues --    2.98906   2.99043   2.99590   2.99772   2.99999
  Beta virt. eigenvalues --    3.00166   3.00189   3.00555   3.00632   3.00639
  Beta virt. eigenvalues --    3.00720   3.00812   3.01542   3.01804   3.01841
  Beta virt. eigenvalues --    3.02144   3.02235   3.02264   3.02755   3.03379
  Beta virt. eigenvalues --    3.03698   3.03796   3.04164   3.04454   3.05219
  Beta virt. eigenvalues --    3.05340   3.05491   3.05616   3.05726   3.05871
  Beta virt. eigenvalues --    3.05884   3.05906   3.06170   3.06235   3.06263
  Beta virt. eigenvalues --    3.06447   3.06863   3.07096   3.07513   3.07534
  Beta virt. eigenvalues --    3.07730   3.07845   3.07911   3.07937   3.08098
  Beta virt. eigenvalues --    3.08217   3.08486   3.08514   3.08787   3.09247
  Beta virt. eigenvalues --    3.09296   3.09390   3.09715   3.10042   3.10681
  Beta virt. eigenvalues --    3.11744   3.13671   3.20174   3.21237   3.21343
  Beta virt. eigenvalues --    3.21578   3.21769   3.21804   3.21848   3.21862
  Beta virt. eigenvalues --    3.21968   3.22066   3.22245   3.22498   3.22574
  Beta virt. eigenvalues --    3.22687   3.22935   3.23022   3.23126   3.23190
  Beta virt. eigenvalues --    3.23388   3.23544   3.24160   3.24394   3.24445
  Beta virt. eigenvalues --    3.25085   3.25404   3.26283   3.26493   3.28029
  Beta virt. eigenvalues --    3.28068   3.28782   3.30503   3.53796   3.54694
  Beta virt. eigenvalues --    3.55085   3.55321   3.55366   3.55412   3.55482
  Beta virt. eigenvalues --    3.55807   3.56133   3.56148   3.56516   3.56689
  Beta virt. eigenvalues --    3.56926   3.57025   3.57123   3.57252   3.57654
  Beta virt. eigenvalues --    3.58588   3.59096   3.59426   3.59899   3.60076
  Beta virt. eigenvalues --    3.60241   3.60251   3.60461   3.60663   3.60856
  Beta virt. eigenvalues --    3.62477   3.62621   3.82532   3.82639   3.82792
  Beta virt. eigenvalues --    3.82803   3.82840   3.82936   3.83062   3.83168
  Beta virt. eigenvalues --    3.83237   3.83585   3.84049   3.84108   3.84236
  Beta virt. eigenvalues --    3.84296   3.85215   3.85442   3.86167   3.86869
  Beta virt. eigenvalues --    3.86932   3.87105   3.87226   3.87951   3.88015
  Beta virt. eigenvalues --    3.88891   3.91745   3.92413   3.93517   3.95248
  Beta virt. eigenvalues --    3.96853
          Condensed to atoms (all electrons):
          Atomic-Atomic Spin Densities.
 Mulliken charges and spin densities:
               1          2
     1  N   -0.147898   0.841430
     2  C    0.033765  -0.058073
     3  C   -0.100291   0.049010
     4  H   -0.003185   0.058211
     5  H    0.055330   0.001413
     6  C   -0.075603   0.005595
     7  H    0.050125  -0.002526
     8  H    0.051846   0.000644
     9  H    0.046274   0.001195
    10  H    0.040770  -0.000359
    11  H    0.010890  -0.000210
    12  C    0.007787  -0.051638
    13  C   -0.099629   0.049868
    14  H    0.082577   0.039294
    15  H    0.073705   0.002959
    16  C   -0.072922   0.007639
    17  H    0.063520  -0.002268
    18  H    0.048913  -0.000786
    19  H    0.046137   0.002111
    20  H    0.036072  -0.000303
    21  H    0.037914  -0.000691
    22  C    0.021837  -0.055725
    23  C   -0.105378   0.059182
    24  H    0.054216   0.033563
    25  H    0.079049   0.007451
    26  C   -0.080248   0.008753
    27  H    0.053577  -0.002492
    28  H    0.054981  -0.001114
    29  H    0.053312   0.002150
    30  H    0.043328  -0.000467
    31  H    0.046310  -0.000456
    32  O   -0.384526   0.002165
    33  H    0.198336   0.000187
    34  H    0.187533   0.000048
    35  O   -0.343960   0.001576
    36  H    0.195499  -0.000274
    37  H    0.216429   0.000692
    38  O   -0.393177   0.000432
    39  H    0.192614  -0.000571
    40  H    0.205821   0.000132
    41  O   -0.352666   0.001205
    42  H    0.176418  -0.000065
    43  H    0.182265   0.000098
    44  O   -0.379504  -0.000000
    45  H    0.205883   0.000001
    46  H    0.217109  -0.000009
    47  O   -0.392468   0.000158
    48  H    0.163012   0.000155
    49  H    0.165100  -0.000043
    50  O   -0.359829  -0.000002
    51  H    0.198032   0.000000
    52  H    0.169402  -0.000000
    53  O   -0.392288   0.000053
    54  H    0.171463   0.000009
    55  H    0.155946  -0.000012
    56  O   -0.409265   0.000035
    57  H    0.165924  -0.000006
    58  H    0.183856   0.000005
    59  O   -0.348148   0.000044
    60  H    0.194216   0.000005
    61  H    0.194424   0.000005
    62  O   -0.362308   0.000055
    63  H    0.162353   0.000016
    64  H    0.185555  -0.000002
    65  O   -0.367637   0.000001
    66  H    0.183858  -0.000000
    67  H    0.209005  -0.000000
    68  O   -0.357360   0.000096
    69  H    0.160284   0.000005
    70  H    0.185503  -0.000003
    71  O   -0.342082   0.000332
    72  H    0.196068   0.000028
    73  H    0.194209   0.000047
    74  O   -0.347120   0.000000
    75  H    0.212078   0.000000
    76  H    0.213058   0.000000
    77  O   -0.410262  -0.000000
    78  H    0.183112   0.000000
    79  H    0.167090   0.000000
    80  O   -0.388263   0.000017
    81  H    0.205380   0.000001
    82  H    0.199753   0.000000
    83  O   -0.347404  -0.000000
    84  H    0.211512   0.000000
    85  H    0.211581  -0.000000
    86  O   -0.348924   0.000001
    87  H    0.204664  -0.000000
    88  H    0.205603   0.000000
    89  O   -0.349717   0.000005
    90  H    0.207687  -0.000000
    91  H    0.207596   0.000001
    92  O   -0.384246  -0.000000
    93  H    0.192049   0.000000
    94  H    0.192181   0.000000
    95  O   -0.349343   0.000001
    96  H    0.208334   0.000000
    97  H    0.208277   0.000000
    98  O   -0.347936   0.000000
    99  H    0.211293  -0.000000
   100  H    0.211717   0.000000
   101  O   -0.346594   0.000001
   102  H    0.209485   0.000000
   103  H    0.209286   0.000000
   104  O   -0.384569  -0.000000
   105  H    0.192342   0.000000
   106  H    0.192199   0.000000
   107  O   -0.384693  -0.000000
   108  H    0.192167   0.000000
   109  H    0.192558   0.000000
   110  O   -0.350942   0.000002
   111  H    0.205905   0.000000
   112  H    0.205719   0.000000
   113  O   -0.346550  -0.000000
   114  H    0.211811   0.000000
   115  H    0.212011   0.000000
   116  O   -0.388254   0.000012
   117  H    0.194418   0.000001
   118  H    0.165973  -0.000001
 Sum of Mulliken charges =   1.00000   1.00000
 Mulliken charges and spin densities with hydrogens summed into heavy atoms:
               1          2
     1  N   -0.147898   0.841430
     2  C    0.085910   0.001551
     3  C    0.001680   0.047127
     6  C    0.022330   0.006221
    12  C    0.164069  -0.009386
    13  C    0.012804   0.046815
    16  C    0.047201   0.008756
    22  C    0.155103  -0.014712
    23  C    0.003180   0.055576
    26  C    0.062702   0.009981
    32  O    0.001343   0.002400
    35  O    0.067969   0.001993
    38  O    0.005259  -0.000007
    41  O    0.006017   0.001238
    44  O    0.043488  -0.000008
    47  O   -0.064356   0.000271
    50  O    0.007604  -0.000003
    53  O   -0.064879   0.000050
    56  O   -0.059486   0.000034
    59  O    0.040492   0.000054
    62  O   -0.014400   0.000070
    65  O    0.025226   0.000001
    68  O   -0.011573   0.000098
    71  O    0.048194   0.000407
    74  O    0.078017   0.000000
    77  O   -0.060060   0.000000
    80  O    0.016870   0.000018
    83  O    0.075689   0.000000
    86  O    0.061343   0.000001
    89  O    0.065566   0.000005
    92  O   -0.000016  -0.000000
    95  O    0.067268   0.000002
    98  O    0.075074   0.000000
   101  O    0.072177   0.000002
   104  O   -0.000029   0.000000
   107  O    0.000031   0.000000
   110  O    0.060682   0.000003
   113  O    0.077273   0.000000
   116  O   -0.027863   0.000013
 Electronic spatial extent (au):  <R**2>=          50323.9560
 Charge=              1.0000 electrons
 Dipole moment (field-independent basis, Debye):
    X=              4.4905    Y=              1.2072    Z=              3.0045  Tot=              5.5362
 Quadrupole moment (field-independent basis, Debye-Ang):
   XX=           -148.6631   YY=            -10.6720   ZZ=           -140.3215
   XY=             -4.8094   XZ=             -6.0080   YZ=             -1.6846
 Traceless Quadrupole moment (field-independent basis, Debye-Ang):
   XX=            -48.7775   YY=             89.2135   ZZ=            -40.4360
   XY=             -4.8094   XZ=             -6.0080   YZ=             -1.6846
 Octapole moment (field-independent basis, Debye-Ang**2):
  XXX=            436.4891  YYY=            195.3952  ZZZ=           -375.4133  XYY=             52.5825
  XXY=           -394.8748  XXZ=            183.4278  XZZ=            202.0351  YZZ=           -230.5791
  YYZ=            109.1958  XYZ=            165.5359
 Hexadecapole moment (field-independent basis, Debye-Ang**3):
 XXXX=         -20919.8425 YYYY=          -6496.6798 ZZZZ=          -9906.9980 XXXY=          -2858.3772
 XXXZ=           -104.0788 YYYX=           1820.0490 YYYZ=          -1039.2208 ZZZX=            489.7750
 ZZZY=           -204.4712 XXYY=          -2971.4118 XXZZ=          -4520.7458 YYZZ=          -2420.2030
 XXYZ=            639.0230 YYXZ=            313.6412 ZZXY=           -492.3225
 N-N= 5.628189893959D+03 E-N=-1.741540272256D+04  KE= 2.602334794212D+03
 Leave Link  601 at Tue Mar  3 13:48:00 2026, MaxMem=  1610612736 cpu:               2.2 elap:               0.5
 (Enter /leonardo/prod/opt/applications/g16/c02/binary/g16/l9999.exe)
 Unable to Open any file for archive entry.
 1\1\GINC-LRDN3467\FOpt\UM062X\def2SVP\C9H79N1O29(1+,2)\MORZA000\03-Mar
 -2026\0\\#p opt(addredundant) M062X/def2svp scrf=(cpcm,solvent=water) 
 empiricaldispersion=GD3\\Title Card Required\\1,2\N,-0.1649207425,-0.9
 240062141,0.3811559513\C,-0.1007173562,-0.0301890732,-0.7487580179\C,0
 .8556596645,-0.5104996556,-1.8500677164\H,0.2670460978,0.9353499105,-0
 .3509286601\H,-1.1197503765,0.1114091958,-1.1356846521\C,1.0917780304,
 0.6202498625,-2.8444218779\H,1.8121135324,-0.8276043573,-1.4081119191\
 H,0.4138416457,-1.3872049973,-2.3511132028\H,1.7402659947,0.2985809975
 ,-3.670988517\H,0.141315897,0.9745624176,-3.271630072\H,1.5742628962,1
 .4670492093,-2.3338564028\C,1.0308118884,-1.200880285,1.1439072403\C,1
 .5012297704,-2.6546960229,0.999057752\H,0.7825743201,-0.9826423684,2.1
 945993697\H,1.8084906672,-0.5002878182,0.8092116954\C,2.8173470101,-2.
 8511857213,1.7432344234\H,0.7325580108,-3.3426500729,1.380332618\H,1.6
 630004883,-2.8858115145,-0.0642844725\H,3.0907670401,-3.9152771305,1.7
 438909054\H,3.632452373,-2.2996991185,1.2523912136\H,2.7468349771,-2.5
 128798094,2.7886348623\C,-1.4285470094,-1.5120402329,0.7477654098\C,-1
 .7968294777,-2.6987022638,-0.1653279292\H,-2.1888496514,-0.7236341758,
 0.6214721153\H,-1.3899729117,-1.8275445916,1.8011374808\C,-3.243890805
 1,-3.0999207531,0.0989198773\H,-1.660887082,-2.4171542799,-1.221649082
 6\H,-1.1178004072,-3.5411758828,0.0389872471\H,-3.5209944651,-3.980229
 4356,-0.4964852514\H,-3.3899488782,-3.3437716617,1.1616413555\H,-3.922
 0922711,-2.2762918736,-0.1673654824\O,0.2842404319,3.0796314859,0.7410
 844596\H,-0.6040461832,2.9816185494,0.349990207\H,0.852837005,3.536246
 3396,0.0884975948\O,-0.6547270711,1.0681174042,2.3070654116\H,-0.10090
 49087,1.8259130071,2.0396813683\H,-0.7258275674,1.1227528123,3.2682527
 044\O,-2.3171560525,2.1181908626,0.4110352003\H,-2.0005343847,1.682985
 2447,1.2271572304\H,-3.1683288693,2.5588309285,0.6279607541\O,2.651762
 7067,1.5146432763,0.1704717098\H,1.9138361746,1.8048557242,0.726605133
 5\H,2.7743855756,2.3048749837,-0.3844318366\O,2.2284685338,4.034216780
 6,-0.9981643122\H,2.7726475456,4.846305414,-0.8404539266\H,1.958964051
 ,4.0991324315,-1.9232802878\O,-3.5050919902,0.3689220298,-1.4058866105
 \H,-4.1052313584,0.9751978538,-1.872783762\H,-3.0556101205,0.960907965
 6,-0.7729915855\O,6.01504,-1.92951,-0.32826\H,6.28735,-1.02353,-0.5043
 8\H,6.79164,-2.40731,-0.0226\O,3.61456,-2.98806,-1.53144\H,4.39453,-2.
 61162,-1.09802\H,3.92791,-3.73228,-2.05227\O,2.85079,-0.29855,5.66204\
 H,3.30935,0.4895,5.35365\H,3.38899,-0.68563,6.35786\O,3.25846,0.07908,
 -5.588\H,2.90826,0.0447,-6.48278\H,3.98485,-0.54989,-5.54225\O,0.13789
 ,-5.79526,0.63573\H,0.01838,-6.45547,1.32428\H,0.40878,-6.26574,-0.157
 56\O,3.67776,6.30748,-0.70356\H,3.40122,6.89426,0.00708\H,4.63112,6.19
 875,-0.6308\O,-0.80008,-3.10749,-3.72219\H,-1.44098,-2.88007,-4.40218\
 H,-0.28626,-3.84689,-4.05945\O,-1.96649,-2.90193,3.96161\H,-2.70441,-2
 .52162,4.44729\H,-1.52182,-3.50732,4.56226\O,-4.86599,6.00077,0.38933\
 H,-5.12962,6.43983,-0.42494\H,-4.0735,6.44379,0.71039\O,-8.36452,-1.97
 877,-2.07389\H,-7.53562,-1.56497,-2.33457\H,-8.16874,-2.8993,-1.87432\
 O,-4.83278,3.1901,0.56821\H,-4.91806,4.16654,0.57813\H,-5.53012,2.8249
 1,1.15139\O,8.17715,-3.4434,0.66474\H,8.06961,-3.69399,1.58825\H,8.360
 03,-4.24906,0.17084\O,4.66671,-5.06928,-3.31905\H,5.32773,-4.76832,-3.
 94992\H,4.03891,-5.61299,-3.80409\O,4.53701,1.85186,4.86079\H,4.2868,2
 .76597,4.69438\H,5.1427,1.59143,4.15918\O,6.72505,3.44631,-3.79441\H,6
 .01093,3.67303,-4.39917\H,6.4013,2.72434,-3.24462\O,-0.18587,-7.78686,
 2.68685\H,0.34413,-7.67955,3.48289\H,-1.0508,-8.10969,2.9599\O,2.83403
 ,7.98084,1.39525\H,2.75865,8.93473,1.29898\H,2.07845,7.68514,1.91311\O
 ,-2.79143,-2.52514,-5.69067\H,-2.79421,-1.64312,-6.07556\H,-3.66388,-2
 .67072,-5.31174\O,-1.59794,-0.12754,8.31211\H,-1.21645,0.64338,7.87904
 \H,-0.89962,-0.78747,8.37189\O,-0.96618,8.99378,-1.64175\H,-0.67024,9.
 62963,-2.29976\H,-0.62559,8.13312,-1.90851\O,-7.49974,-4.67841,-1.5175
 5\H,-7.55941,-5.11265,-0.66091\H,-7.31068,-5.36041,-2.16983\O,-6.83859
 ,1.9845,2.21651\H,-6.50805,1.52433,2.99452\H,-7.41311,1.36918,1.74938\
 O,-5.14056,2.6708,-2.16419\H,-6.08261,2.74278,-2.33711\H,-5.03043,2.79
 048,-1.20249\\Version=ES64L-G16RevC.02\State=2-A\HF=-2623.5030003\S2=0
 .754904\S2-1=0.\S2A=0.750021\RMSD=2.647e-09\RMSF=3.975e-03\Dipole=1.76
 65146,0.4804374,1.1801261\Quadrupole=-36.2551243,66.3082261,-30.053101
 8,-3.8069783,-4.4543285,-1.3939792\PG=C01 [X(C9H79N1O29)]\\@
 The archive entry for this job was punched.


 THERE'S NOTHING WRONG WITH FOLLOWING A TRAIN OF THOUGHT...
 AS LONG AS IT ULTIMATELY PULLS INTO THE STATION.
 Job cpu time:       0 days 21 hours 20 minutes 45.6 seconds.
 Elapsed time:       0 days  2 hours  3 minutes 41.8 seconds.
 File lengths (MBytes):  RWF=   1857 Int=      0 D2E=      0 Chk=    107 Scr=      1
 Normal termination of Gaussian 16 at Tue Mar  3 13:48:01 2026.
